<?xml version="1.0" encoding="UTF-8"?>

<!-- generated on Fri May  8 08:54:38 2015 by SUMO Version 0.22.0
<?xml version="1.0" encoding="UTF-8"?>

<configuration xmlns:xsi="http://www.w3.org/2001/XMLSchema-instance" xsi:noNamespaceSchemaLocation="http://sumo.dlr.de/xsd/sumoConfiguration.xsd">

    <input>
        <net-file value="output/scenario2.net.xml"/>
        <route-files value="scenario2.rou.xml"/>
    </input>

    <output>
        <fcd-output value="output/fcd.xml"/>
    </output>

</configuration>
-->

<fcd-export xmlns:xsi="http://www.w3.org/2001/XMLSchema-instance" xsi:noNamespaceSchemaLocation="http://sumo.dlr.de/xsd/fcd_file.xsd">
    <timestep time="0.00">
        <vehicle id="veh0" x="2003.24" y="488.45" angle="90.00" type="CarA" speed="0.00" pos="2.96" lane="a0_0" slope="0.00"/>
        <vehicle id="veh1" x="1998.75" y="488.45" angle="90.00" type="CarA" speed="0.00" pos="5.10" lane="a1_0" slope="0.00"/>
        <vehicle id="veh2" x="1992.31" y="488.45" angle="90.00" type="CarA" speed="0.00" pos="5.10" lane="a2_0" slope="0.00"/>
        <vehicle id="veh3" x="1991.21" y="492.46" angle="45.04" type="CarA" speed="0.00" pos="5.10" lane="a3_0" slope="0.00"/>
        <vehicle id="veh4" x="1989.39" y="492.39" angle="63.46" type="CarA" speed="0.00" pos="5.10" lane="a4_0" slope="0.00"/>
        <vehicle id="veh5" x="2867.52" y="6011.55" angle="-90.00" type="CarB" speed="0.00" pos="2.48" lane="a5_0" slope="0.00"/>
        <vehicle id="veh6" x="2869.90" y="6011.55" angle="-90.00" type="CarB" speed="0.00" pos="5.10" lane="a6_0" slope="0.00"/>
        <vehicle id="veh7" x="2874.90" y="6011.55" angle="-90.00" type="CarB" speed="0.00" pos="5.10" lane="a7_0" slope="0.00"/>
        <vehicle id="veh8" x="2858.91" y="6009.60" angle="-36.87" type="CarB" speed="0.00" pos="1.55" lane="a8_0" slope="0.00"/>
        <vehicle id="veh9" x="2863.42" y="6011.77" angle="-60.86" type="CarB" speed="0.00" pos="5.10" lane="a9_0" slope="0.00"/>
    </timestep>
    <timestep time="1.00">
        <vehicle id="veh0" x="2003.24" y="488.45" angle="90.00" type="CarA" speed="0.00" pos="2.96" lane="a0_0" slope="0.00"/>
        <vehicle id="veh1" x="2000.42" y="488.45" angle="90.00" type="CarA" speed="0.97" pos="6.07" lane="a1_0" slope="0.00"/>
        <vehicle id="veh2" x="1995.46" y="488.45" angle="90.00" type="CarA" speed="2.19" pos="7.29" lane="a2_0" slope="0.00"/>
        <vehicle id="veh3" x="1991.93" y="491.73" angle="45.04" type="CarA" speed="0.84" pos="5.94" lane="a3_0" slope="0.00"/>
        <vehicle id="veh4" x="1991.04" y="491.57" angle="63.46" type="CarA" speed="1.84" pos="6.94" lane="a4_0" slope="0.00"/>
        <vehicle id="veh5" x="2849.91" y="6006.77" angle="-64.86" type="CarB" speed="17.63" pos="17.63" lane=":17_8_0" slope="0.00"/>
        <vehicle id="veh6" x="2868.95" y="6011.55" angle="-90.00" type="CarB" speed="0.95" pos="6.05" lane="a6_0" slope="0.00"/>
        <vehicle id="veh7" x="2872.50" y="6011.55" angle="-90.00" type="CarB" speed="2.40" pos="7.50" lane="a7_0" slope="0.00"/>
        <vehicle id="veh8" x="2858.91" y="6009.60" angle="-36.87" type="CarB" speed="0.00" pos="1.55" lane="a8_0" slope="0.00"/>
        <vehicle id="veh9" x="2862.82" y="6011.43" angle="-60.86" type="CarB" speed="0.51" pos="5.61" lane="a9_0" slope="0.00"/>
    </timestep>
    <timestep time="2.00">
        <vehicle id="veh0" x="2003.24" y="488.45" angle="90.00" type="CarA" speed="0.00" pos="2.96" lane="a0_0" slope="0.00"/>
        <vehicle id="veh1" x="2001.88" y="488.45" angle="90.00" type="CarA" speed="0.85" pos="6.93" lane="a1_0" slope="0.00"/>
        <vehicle id="veh2" x="1997.89" y="488.45" angle="90.00" type="CarA" speed="1.69" pos="8.99" lane="a2_0" slope="0.00"/>
        <vehicle id="veh3" x="1992.82" y="490.85" angle="45.04" type="CarA" speed="1.03" pos="6.97" lane="a3_0" slope="0.00"/>
        <vehicle id="veh4" x="1992.23" y="490.97" angle="63.46" type="CarA" speed="1.34" pos="8.27" lane="a4_0" slope="0.00"/>
        <vehicle id="veh5" x="2828.15" y="5992.60" angle="-54.37" type="CarB" speed="24.92" pos="42.55" lane=":17_8_0" slope="0.00"/>
        <vehicle id="veh6" x="2868.29" y="6011.55" angle="-90.00" type="CarB" speed="0.66" pos="6.71" lane="a6_0" slope="0.00"/>
        <vehicle id="veh7" x="2870.60" y="6011.55" angle="-90.00" type="CarB" speed="1.90" pos="9.40" lane="a7_0" slope="0.00"/>
        <vehicle id="veh8" x="2849.80" y="6000.84" angle="-46.11" type="CarB" speed="13.32" pos="13.32" lane=":17_0_0" slope="0.00"/>
        <vehicle id="veh9" x="2862.30" y="6011.14" angle="-60.86" type="CarB" speed="0.44" pos="6.06" lane="a9_0" slope="0.00"/>
    </timestep>
    <timestep time="3.00">
        <vehicle id="veh0" x="2003.24" y="488.45" angle="90.00" type="CarA" speed="0.00" pos="2.96" lane="a0_0" slope="0.00"/>
        <vehicle id="veh1" x="2002.62" y="488.45" angle="90.00" type="CarA" speed="0.43" pos="7.36" lane="a1_0" slope="0.00"/>
        <vehicle id="veh2" x="1999.79" y="488.45" angle="90.00" type="CarA" speed="1.33" pos="10.32" lane="a2_0" slope="0.00"/>
        <vehicle id="veh3" x="1993.27" y="490.40" angle="45.04" type="CarA" speed="0.53" pos="7.50" lane="a3_0" slope="0.00"/>
        <vehicle id="veh4" x="1992.98" y="490.60" angle="63.46" type="CarA" speed="0.84" pos="9.11" lane="a4_0" slope="0.00"/>
        <vehicle id="veh5" x="2807.01" y="5979.26" angle="-60.00" type="CarB" speed="24.42" pos="10.90" lane="m_0" slope="0.00"/>
        <vehicle id="veh6" x="2867.98" y="6008.25" angle="-90.00" type="CarB" speed="0.31" pos="7.02" lane="a6_1" slope="0.00"/>
        <vehicle id="veh7" x="2869.20" y="6008.25" angle="-90.00" type="CarB" speed="1.40" pos="10.80" lane="a7_1" slope="0.00"/>
        <vehicle id="veh8" x="2829.15" y="5990.82" angle="-67.85" type="CarB" speed="24.25" pos="37.57" lane=":17_0_0" slope="0.00"/>
        <vehicle id="veh9" x="2852.78" y="6005.77" angle="-60.55" type="CarB" speed="11.18" pos="10.69" lane=":17_4_0" slope="0.00"/>
    </timestep>
    <timestep time="4.00">
        <vehicle id="veh0" x="2003.24" y="488.45" angle="90.00" type="CarA" speed="0.00" pos="2.96" lane="a0_0" slope="0.00"/>
        <vehicle id="veh1" x="2003.04" y="488.45" angle="90.00" type="CarA" speed="0.24" pos="7.60" lane="a1_0" slope="0.00"/>
        <vehicle id="veh2" x="2001.31" y="488.45" angle="90.00" type="CarA" speed="1.06" pos="11.37" lane="a2_0" slope="0.00"/>
        <vehicle id="veh3" x="1993.55" y="490.15" angle="45.29" type="CarA" speed="1.24" pos="1.02" lane=":0_24_0" slope="0.00"/>
        <vehicle id="veh4" x="1993.42" y="490.38" angle="63.46" type="CarA" speed="0.49" pos="9.60" lane="a4_0" slope="0.00"/>
        <vehicle id="veh5" x="2786.29" y="5967.30" angle="-60.00" type="CarB" speed="23.92" pos="34.83" lane="m_0" slope="0.00"/>
        <vehicle id="veh6" x="2844.65" y="6000.39" angle="-60.67" type="CarB" speed="24.59" pos="24.13" lane=":17_12_1" slope="0.00"/>
        <vehicle id="veh7" x="2868.30" y="6008.25" angle="-90.00" type="CarB" speed="0.90" pos="11.70" lane="a7_1" slope="0.00"/>
        <vehicle id="veh8" x="2808.74" y="5980.26" angle="-60.00" type="CarB" speed="23.75" pos="8.90" lane="m_0" slope="0.00"/>
        <vehicle id="veh9" x="2840.31" y="5998.60" angle="-59.94" type="CarB" speed="14.97" pos="25.66" lane=":17_4_0" slope="0.00"/>
    </timestep>
    <timestep time="5.00">
        <vehicle id="veh0" x="2003.24" y="488.45" angle="90.00" type="CarA" speed="0.00" pos="2.96" lane="a0_0" slope="0.00"/>
        <vehicle id="veh1" x="2003.07" y="488.45" angle="90.00" type="CarA" speed="0.02" pos="7.62" lane="a1_0" slope="0.00"/>
        <vehicle id="veh2" x="2002.11" y="488.45" angle="90.00" type="CarA" speed="0.56" pos="11.93" lane="a2_0" slope="0.00"/>
        <vehicle id="veh3" x="1993.66" y="490.07" angle="45.80" type="CarA" speed="1.25" pos="2.27" lane=":0_24_0" slope="0.00"/>
        <vehicle id="veh4" x="1993.43" y="490.38" angle="63.46" type="CarA" speed="0.01" pos="9.61" lane="a4_0" slope="0.00"/>
        <vehicle id="veh5" x="2766.00" y="5955.58" angle="-60.00" type="CarB" speed="23.42" pos="58.25" lane="m_0" slope="0.00"/>
        <vehicle id="veh6" x="2824.67" y="5986.35" angle="-55.69" type="CarB" speed="24.09" pos="48.23" lane=":17_12_1" slope="0.00"/>
        <vehicle id="veh7" x="2867.79" y="6008.25" angle="-90.00" type="CarB" speed="0.51" pos="12.21" lane="a7_1" slope="0.00"/>
        <vehicle id="veh8" x="2788.35" y="5968.48" angle="-60.00" type="CarB" speed="23.55" pos="32.45" lane="m_0" slope="0.00"/>
        <vehicle id="veh9" x="2822.67" y="5988.32" angle="-59.85" type="CarB" speed="21.26" pos="46.92" lane=":17_4_0" slope="0.00"/>
    </timestep>
    <timestep time="6.00">
        <vehicle id="veh0" x="2003.24" y="488.45" angle="90.00" type="CarA" speed="0.00" pos="2.96" lane="a0_0" slope="0.00"/>
        <vehicle id="veh1" x="2003.07" y="488.45" angle="90.00" type="CarA" speed="0.00" pos="7.62" lane="a1_0" slope="0.00"/>
        <vehicle id="veh2" x="2002.71" y="488.45" angle="90.00" type="CarA" speed="0.42" pos="12.35" lane="a2_0" slope="0.00"/>
        <vehicle id="veh3" x="1993.73" y="490.03" angle="46.37" type="CarA" speed="0.76" pos="3.04" lane=":0_24_0" slope="0.00"/>
        <vehicle id="veh4" x="1993.43" y="490.38" angle="63.46" type="CarA" speed="0.00" pos="9.61" lane="a4_0" slope="0.00"/>
        <vehicle id="veh5" x="2746.15" y="5944.12" angle="-60.00" type="CarB" speed="22.92" pos="81.18" lane="m_0" slope="0.00"/>
        <vehicle id="veh6" x="2804.46" y="5973.98" angle="-60.00" type="CarB" speed="23.59" pos="15.75" lane="m_1" slope="0.00"/>
        <vehicle id="veh7" x="2852.07" y="6004.56" angle="-71.74" type="CarB" speed="16.02" pos="15.75" lane=":17_16_1" slope="0.00"/>
        <vehicle id="veh8" x="2768.25" y="5956.88" angle="-60.00" type="CarB" speed="23.21" pos="55.66" lane="m_0" slope="0.00"/>
        <vehicle id="veh9" x="2804.95" y="5978.07" angle="-60.00" type="CarB" speed="20.76" pos="13.28" lane="m_0" slope="0.00"/>
    </timestep>
    <timestep time="7.00">
        <vehicle id="veh0" x="2003.24" y="488.45" angle="90.00" type="CarA" speed="0.00" pos="2.96" lane="a0_0" slope="0.00"/>
        <vehicle id="veh1" x="2003.07" y="488.45" angle="90.00" type="CarA" speed="0.00" pos="7.62" lane="a1_0" slope="0.00"/>
        <vehicle id="veh2" x="2003.08" y="488.45" angle="90.00" type="CarA" speed="0.26" pos="12.61" lane="a2_0" slope="0.00"/>
        <vehicle id="veh3" x="1993.81" y="489.97" angle="47.60" type="CarA" speed="0.83" pos="3.87" lane=":0_24_0" slope="0.00"/>
        <vehicle id="veh4" x="1993.43" y="490.38" angle="63.46" type="CarA" speed="0.00" pos="9.61" lane="a4_0" slope="0.00"/>
        <vehicle id="veh5" x="2724.80" y="5931.80" angle="-60.00" type="CarB" speed="24.65" pos="105.83" lane="m_0" slope="0.00"/>
        <vehicle id="veh6" x="2784.46" y="5962.44" angle="-60.00" type="CarB" speed="23.09" pos="38.85" lane="m_1" slope="0.00"/>
        <vehicle id="veh7" x="2833.41" y="5992.51" angle="-53.19" type="CarB" speed="21.94" pos="37.69" lane=":17_16_1" slope="0.00"/>
        <vehicle id="veh8" x="2748.52" y="5945.49" angle="-60.00" type="CarB" speed="22.78" pos="78.44" lane="m_0" slope="0.00"/>
        <vehicle id="veh9" x="2787.41" y="5967.94" angle="-60.00" type="CarB" speed="20.26" pos="33.54" lane="m_0" slope="0.00"/>
    </timestep>
    <timestep time="8.00">
        <vehicle id="veh0" x="2003.24" y="488.45" angle="90.00" type="CarA" speed="0.00" pos="2.96" lane="a0_0" slope="0.00"/>
        <vehicle id="veh1" x="2003.07" y="488.45" angle="90.00" type="CarA" speed="0.00" pos="7.62" lane="a1_0" slope="0.00"/>
        <vehicle id="veh2" x="2003.09" y="488.45" angle="90.00" type="CarA" speed="0.01" pos="12.62" lane="a2_0" slope="0.00"/>
        <vehicle id="veh3" x="2015.00" y="495.32" angle="120.00" type="CarA" speed="23.92" pos="9.18" lane="a_0" slope="0.00"/>
        <vehicle id="veh4" x="1993.43" y="490.38" angle="63.46" type="CarA" speed="0.00" pos="9.61" lane="a4_0" slope="0.00"/>
        <vehicle id="veh5" x="2703.88" y="5919.72" angle="-60.00" type="CarB" speed="24.15" pos="129.98" lane="m_0" slope="0.00"/>
        <vehicle id="veh6" x="2764.89" y="5951.14" angle="-60.00" type="CarB" speed="22.59" pos="61.44" lane="m_1" slope="0.00"/>
        <vehicle id="veh7" x="2815.45" y="5980.33" angle="-58.31" type="CarB" speed="21.44" pos="3.06" lane="m_1" slope="0.00"/>
        <vehicle id="veh8" x="2729.22" y="5934.35" angle="-60.00" type="CarB" speed="22.28" pos="100.72" lane="m_0" slope="0.00"/>
        <vehicle id="veh9" x="2769.18" y="5957.42" angle="-60.00" type="CarB" speed="21.05" pos="54.59" lane="m_0" slope="0.00"/>
    </timestep>
    <timestep time="9.00">
        <vehicle id="veh0" x="2017.09" y="496.53" angle="120.00" type="CarA" speed="18.72" pos="11.60" lane="a_0" slope="0.00"/>
        <vehicle id="veh1" x="1994.17" y="491.75" angle="90.00" type="CarA" speed="0.00" pos="7.62" lane="a1_1" slope="0.00"/>
        <vehicle id="veh2" x="1994.16" y="491.75" angle="90.00" type="CarA" speed="0.00" pos="12.62" lane="a2_1" slope="0.00"/>
        <vehicle id="veh3" x="2035.29" y="507.03" angle="120.00" type="CarA" speed="23.42" pos="32.61" lane="a_0" slope="0.00"/>
        <vehicle id="veh4" x="1994.90" y="493.33" angle="63.43" type="CarA" speed="0.00" pos="9.61" lane="a4_1" slope="0.00"/>
        <vehicle id="veh5" x="2683.40" y="5907.89" angle="-60.00" type="CarB" speed="23.65" pos="153.63" lane="m_0" slope="0.00"/>
        <vehicle id="veh6" x="2745.54" y="5939.97" angle="-60.00" type="CarB" speed="22.35" pos="83.79" lane="m_1" slope="0.00"/>
        <vehicle id="veh7" x="2797.32" y="5969.86" angle="-60.00" type="CarB" speed="20.94" pos="23.99" lane="m_1" slope="0.00"/>
        <vehicle id="veh8" x="2710.36" y="5923.46" angle="-60.00" type="CarB" speed="21.78" pos="122.51" lane="m_0" slope="0.00"/>
        <vehicle id="veh9" x="2751.38" y="5947.14" angle="-60.00" type="CarB" speed="20.55" pos="75.14" lane="m_0" slope="0.00"/>
    </timestep>
    <timestep time="10.00">
        <vehicle id="veh0" x="2034.53" y="510.41" angle="120.00" type="CarA" speed="22.04" pos="33.64" lane="a_1" slope="0.00"/>
        <vehicle id="veh1" x="2016.80" y="500.17" angle="120.00" type="CarA" speed="20.44" pos="13.16" lane="a_1" slope="0.00"/>
        <vehicle id="veh2" x="1994.16" y="491.75" angle="90.00" type="CarA" speed="0.00" pos="12.62" lane="a2_1" slope="0.00"/>
        <vehicle id="veh3" x="2055.14" y="518.50" angle="120.00" type="CarA" speed="22.92" pos="55.53" lane="a_0" slope="0.00"/>
        <vehicle id="veh4" x="1994.90" y="493.33" angle="63.43" type="CarA" speed="0.00" pos="9.61" lane="a4_1" slope="0.00"/>
        <vehicle id="veh5" x="2663.35" y="5896.32" angle="-60.00" type="CarB" speed="23.15" pos="176.79" lane="m_0" slope="0.00"/>
        <vehicle id="veh6" x="2726.62" y="5929.04" angle="-60.00" type="CarB" speed="21.85" pos="105.63" lane="m_1" slope="0.00"/>
        <vehicle id="veh7" x="2781.27" y="5956.78" angle="-60.00" type="CarB" speed="20.44" pos="44.43" lane="m_2" slope="0.00"/>
        <vehicle id="veh8" x="2691.92" y="5912.82" angle="-60.00" type="CarB" speed="21.28" pos="143.79" lane="m_0" slope="0.00"/>
        <vehicle id="veh9" x="2734.01" y="5937.12" angle="-60.00" type="CarB" speed="20.05" pos="95.19" lane="m_0" slope="0.00"/>
    </timestep>
    <timestep time="11.00">
        <vehicle id="veh0" x="2053.18" y="521.18" angle="120.00" type="CarA" speed="21.54" pos="55.18" lane="a_1" slope="0.00"/>
        <vehicle id="veh1" x="2034.07" y="510.14" angle="120.00" type="CarA" speed="19.94" pos="33.10" lane="a_1" slope="0.00"/>
        <vehicle id="veh2" x="2011.64" y="497.19" angle="120.00" type="CarA" speed="14.48" pos="7.21" lane="a_1" slope="0.00"/>
        <vehicle id="veh3" x="2074.56" y="529.71" angle="120.00" type="CarA" speed="22.42" pos="77.96" lane="a_0" slope="0.00"/>
        <vehicle id="veh4" x="1994.90" y="493.33" angle="63.43" type="CarA" speed="0.00" pos="9.61" lane="a4_1" slope="0.00"/>
        <vehicle id="veh5" x="2643.73" y="5884.99" angle="-60.00" type="CarB" speed="22.65" pos="199.44" lane="m_0" slope="0.00"/>
        <vehicle id="veh6" x="2708.14" y="5918.37" angle="-60.00" type="CarB" speed="21.35" pos="126.98" lane="m_1" slope="0.00"/>
        <vehicle id="veh7" x="2764.00" y="5946.81" angle="-60.00" type="CarB" speed="19.94" pos="64.37" lane="m_2" slope="0.00"/>
        <vehicle id="veh8" x="2673.92" y="5902.42" angle="-60.00" type="CarB" speed="20.78" pos="164.57" lane="m_0" slope="0.00"/>
        <vehicle id="veh9" x="2716.11" y="5926.78" angle="-60.00" type="CarB" speed="20.68" pos="115.87" lane="m_0" slope="0.00"/>
    </timestep>
    <timestep time="12.00">
        <vehicle id="veh0" x="2071.40" y="531.70" angle="120.00" type="CarA" speed="21.04" pos="76.21" lane="a_1" slope="0.00"/>
        <vehicle id="veh1" x="2050.90" y="519.86" angle="120.00" type="CarA" speed="19.44" pos="52.53" lane="a_1" slope="0.00"/>
        <vehicle id="veh2" x="2026.49" y="505.76" angle="120.00" type="CarA" speed="17.14" pos="24.35" lane="a_1" slope="0.00"/>
        <vehicle id="veh3" x="2094.87" y="541.43" angle="120.00" type="CarA" speed="23.45" pos="101.41" lane="a_0" slope="0.00"/>
        <vehicle id="veh4" x="2005.30" y="493.55" angle="104.45" type="CarA" speed="9.25" pos="9.15" lane=":0_16_1" slope="0.00"/>
        <vehicle id="veh5" x="2623.61" y="5873.37" angle="-60.00" type="CarB" speed="23.24" pos="222.67" lane="m_0" slope="0.00"/>
        <vehicle id="veh6" x="2690.08" y="5907.95" angle="-60.00" type="CarB" speed="20.85" pos="147.82" lane="m_1" slope="0.00"/>
        <vehicle id="veh7" x="2747.17" y="5937.09" angle="-60.00" type="CarB" speed="19.44" pos="83.81" lane="m_2" slope="0.00"/>
        <vehicle id="veh8" x="2656.36" y="5892.28" angle="-60.00" type="CarB" speed="20.28" pos="184.86" lane="m_0" slope="0.00"/>
        <vehicle id="veh9" x="2698.63" y="5916.69" angle="-60.00" type="CarB" speed="20.18" pos="136.05" lane="m_0" slope="0.00"/>
    </timestep>
    <timestep time="13.00">
        <vehicle id="veh0" x="2089.19" y="541.97" angle="120.00" type="CarA" speed="20.54" pos="96.75" lane="a_1" slope="0.00"/>
        <vehicle id="veh1" x="2067.30" y="529.33" angle="120.00" type="CarA" speed="18.94" pos="71.47" lane="a_1" slope="0.00"/>
        <vehicle id="veh2" x="2040.90" y="514.09" angle="120.00" type="CarA" speed="16.64" pos="40.99" lane="a_1" slope="0.00"/>
        <vehicle id="veh3" x="2114.74" y="552.91" angle="120.00" type="CarA" speed="22.95" pos="124.35" lane="a_0" slope="0.00"/>
        <vehicle id="veh4" x="2016.63" y="500.08" angle="120.00" type="CarA" speed="13.07" pos="12.97" lane="a_1" slope="0.00"/>
        <vehicle id="veh5" x="2603.92" y="5862.01" angle="-60.00" type="CarB" speed="22.74" pos="245.41" lane="m_0" slope="0.00"/>
        <vehicle id="veh6" x="2670.09" y="5896.41" angle="-60.00" type="CarB" speed="23.08" pos="170.90" lane="m_1" slope="0.00"/>
        <vehicle id="veh7" x="2725.98" y="5924.86" angle="-60.00" type="CarB" speed="24.47" pos="108.28" lane="m_2" slope="0.00"/>
        <vehicle id="veh8" x="2639.23" y="5882.39" angle="-60.00" type="CarB" speed="19.78" pos="204.64" lane="m_0" slope="0.00"/>
        <vehicle id="veh9" x="2683.24" y="5904.00" angle="-60.00" type="CarB" speed="19.68" pos="155.72" lane="m_1" slope="0.00"/>
    </timestep>
    <timestep time="14.00">
        <vehicle id="veh0" x="2106.54" y="551.99" angle="120.00" type="CarA" speed="20.04" pos="116.79" lane="a_1" slope="0.00"/>
        <vehicle id="veh1" x="2081.61" y="541.40" angle="120.00" type="CarA" speed="18.44" pos="89.91" lane="a_2" slope="0.00"/>
        <vehicle id="veh2" x="2054.88" y="522.16" angle="120.00" type="CarA" speed="16.14" pos="57.13" lane="a_1" slope="0.00"/>
        <vehicle id="veh3" x="2134.18" y="564.13" angle="120.00" type="CarA" speed="22.45" pos="146.80" lane="a_0" slope="0.00"/>
        <vehicle id="veh4" x="2027.52" y="506.36" angle="120.00" type="CarA" speed="12.57" pos="25.54" lane="a_1" slope="0.00"/>
        <vehicle id="veh5" x="2584.66" y="5850.89" angle="-60.00" type="CarB" speed="22.24" pos="267.65" lane="m_0" slope="0.00"/>
        <vehicle id="veh6" x="2650.54" y="5885.12" angle="-60.00" type="CarB" speed="22.58" pos="193.48" lane="m_1" slope="0.00"/>
        <vehicle id="veh7" x="2705.22" y="5912.88" angle="-60.00" type="CarB" speed="23.97" pos="132.25" lane="m_2" slope="0.00"/>
        <vehicle id="veh8" x="2622.53" y="5872.75" angle="-60.00" type="CarB" speed="19.28" pos="223.93" lane="m_0" slope="0.00"/>
        <vehicle id="veh9" x="2664.52" y="5893.19" angle="-60.00" type="CarB" speed="21.62" pos="177.34" lane="m_1" slope="0.00"/>
    </timestep>
    <timestep time="15.00">
        <vehicle id="veh0" x="2123.47" y="561.76" angle="120.00" type="CarA" speed="19.54" pos="136.33" lane="a_1" slope="0.00"/>
        <vehicle id="veh1" x="2097.14" y="550.37" angle="120.00" type="CarA" speed="17.94" pos="107.84" lane="a_2" slope="0.00"/>
        <vehicle id="veh2" x="2072.81" y="532.51" angle="120.00" type="CarA" speed="20.71" pos="77.84" lane="a_1" slope="0.00"/>
        <vehicle id="veh3" x="2153.19" y="575.10" angle="120.00" type="CarA" speed="21.95" pos="168.74" lane="a_0" slope="0.00"/>
        <vehicle id="veh4" x="2037.97" y="512.39" angle="120.00" type="CarA" speed="12.07" pos="37.61" lane="a_1" slope="0.00"/>
        <vehicle id="veh5" x="2564.83" y="5839.44" angle="-60.00" type="CarB" speed="22.91" pos="290.55" lane="m_0" slope="0.00"/>
        <vehicle id="veh6" x="2631.42" y="5874.08" angle="-60.00" type="CarB" speed="22.08" pos="215.56" lane="m_1" slope="0.00"/>
        <vehicle id="veh7" x="2684.90" y="5901.14" angle="-60.00" type="CarB" speed="23.47" pos="155.71" lane="m_2" slope="0.00"/>
        <vehicle id="veh8" x="2606.26" y="5863.36" angle="-60.00" type="CarB" speed="18.78" pos="242.71" lane="m_0" slope="0.00"/>
        <vehicle id="veh9" x="2646.23" y="5882.63" angle="-60.00" type="CarB" speed="21.12" pos="198.46" lane="m_1" slope="0.00"/>
    </timestep>
    <timestep time="16.00">
        <vehicle id="veh0" x="2141.45" y="572.14" angle="120.00" type="CarA" speed="20.76" pos="157.09" lane="a_1" slope="0.00"/>
        <vehicle id="veh1" x="2112.24" y="559.09" angle="120.00" type="CarA" speed="17.44" pos="125.28" lane="a_2" slope="0.00"/>
        <vehicle id="veh2" x="2090.44" y="542.69" angle="120.00" type="CarA" speed="20.36" pos="98.20" lane="a_1" slope="0.00"/>
        <vehicle id="veh3" x="2171.76" y="585.83" angle="120.00" type="CarA" speed="21.45" pos="190.19" lane="a_0" slope="0.00"/>
        <vehicle id="veh4" x="2050.19" y="519.45" angle="120.00" type="CarA" speed="14.11" pos="51.72" lane="a_1" slope="0.00"/>
        <vehicle id="veh5" x="2545.42" y="5828.23" angle="-60.00" type="CarB" speed="22.41" pos="312.96" lane="m_0" slope="0.00"/>
        <vehicle id="veh6" x="2609.89" y="5861.65" angle="-60.00" type="CarB" speed="24.85" pos="240.42" lane="m_1" slope="0.00"/>
        <vehicle id="veh7" x="2665.01" y="5889.66" angle="-60.00" type="CarB" speed="22.97" pos="178.68" lane="m_2" slope="0.00"/>
        <vehicle id="veh8" x="2590.22" y="5854.10" angle="-60.00" type="CarB" speed="18.52" pos="261.23" lane="m_0" slope="0.00"/>
        <vehicle id="veh9" x="2627.84" y="5872.01" angle="-60.00" type="CarB" speed="21.23" pos="219.69" lane="m_1" slope="0.00"/>
    </timestep>
    <timestep time="17.00">
        <vehicle id="veh0" x="2159.00" y="582.27" angle="120.00" type="CarA" speed="20.26" pos="177.36" lane="a_1" slope="0.00"/>
        <vehicle id="veh1" x="2132.66" y="570.87" angle="120.00" type="CarA" speed="23.57" pos="148.85" lane="a_2" slope="0.00"/>
        <vehicle id="veh2" x="2107.64" y="552.62" angle="120.00" type="CarA" speed="19.86" pos="118.06" lane="a_1" slope="0.00"/>
        <vehicle id="veh3" x="2189.90" y="596.30" angle="120.00" type="CarA" speed="20.95" pos="211.14" lane="a_0" slope="0.00"/>
        <vehicle id="veh4" x="2061.98" y="526.26" angle="120.00" type="CarA" speed="13.61" pos="65.33" lane="a_1" slope="0.00"/>
        <vehicle id="veh5" x="2526.45" y="5817.28" angle="-60.00" type="CarB" speed="21.91" pos="334.86" lane="m_0" slope="0.00"/>
        <vehicle id="veh6" x="2588.80" y="5849.47" angle="-60.00" type="CarB" speed="24.35" pos="264.77" lane="m_1" slope="0.00"/>
        <vehicle id="veh7" x="2645.55" y="5878.42" angle="-60.00" type="CarB" speed="22.47" pos="201.15" lane="m_2" slope="0.00"/>
        <vehicle id="veh8" x="2574.62" y="5845.09" angle="-60.00" type="CarB" speed="18.02" pos="279.25" lane="m_0" slope="0.00"/>
        <vehicle id="veh9" x="2609.84" y="5857.80" angle="-60.00" type="CarB" speed="22.70" pos="242.39" lane="m_2" slope="0.00"/>
    </timestep>
    <timestep time="18.00">
        <vehicle id="veh0" x="2176.11" y="592.15" angle="120.00" type="CarA" speed="19.76" pos="197.12" lane="a_1" slope="0.00"/>
        <vehicle id="veh1" x="2152.63" y="582.41" angle="120.00" type="CarA" speed="23.07" pos="171.92" lane="a_2" slope="0.00"/>
        <vehicle id="veh2" x="2124.40" y="562.30" angle="120.00" type="CarA" speed="19.36" pos="137.41" lane="a_1" slope="0.00"/>
        <vehicle id="veh3" x="2207.61" y="606.52" angle="120.00" type="CarA" speed="20.45" pos="231.58" lane="a_0" slope="0.00"/>
        <vehicle id="veh4" x="2073.34" y="532.81" angle="120.00" type="CarA" speed="13.11" pos="78.44" lane="a_1" slope="0.00"/>
        <vehicle id="veh5" x="2507.91" y="5806.58" angle="-60.00" type="CarB" speed="21.41" pos="356.27" lane="m_0" slope="0.00"/>
        <vehicle id="veh6" x="2568.14" y="5837.55" angle="-60.00" type="CarB" speed="23.85" pos="288.63" lane="m_1" slope="0.00"/>
        <vehicle id="veh7" x="2626.53" y="5867.44" angle="-60.00" type="CarB" speed="21.97" pos="223.12" lane="m_2" slope="0.00"/>
        <vehicle id="veh8" x="2556.64" y="5834.71" angle="-60.00" type="CarB" speed="20.76" pos="300.01" lane="m_0" slope="0.00"/>
        <vehicle id="veh9" x="2590.43" y="5846.60" angle="-60.00" type="CarB" speed="22.41" pos="264.80" lane="m_2" slope="0.00"/>
    </timestep>
    <timestep time="19.00">
        <vehicle id="veh0" x="2196.52" y="603.93" angle="120.00" type="CarA" speed="23.57" pos="220.69" lane="a_1" slope="0.00"/>
        <vehicle id="veh1" x="2172.18" y="593.69" angle="120.00" type="CarA" speed="22.57" pos="194.49" lane="a_2" slope="0.00"/>
        <vehicle id="veh2" x="2141.38" y="572.10" angle="120.00" type="CarA" speed="19.60" pos="157.01" lane="a_1" slope="0.00"/>
        <vehicle id="veh3" x="2226.79" y="617.60" angle="120.00" type="CarA" speed="22.15" pos="253.74" lane="a_0" slope="0.00"/>
        <vehicle id="veh4" x="2088.86" y="541.77" angle="120.00" type="CarA" speed="17.92" pos="96.37" lane="a_1" slope="0.00"/>
        <vehicle id="veh5" x="2489.81" y="5796.12" angle="-60.00" type="CarB" speed="20.91" pos="377.18" lane="m_0" slope="0.00"/>
        <vehicle id="veh6" x="2547.92" y="5825.87" angle="-60.00" type="CarB" speed="23.35" pos="311.98" lane="m_1" slope="0.00"/>
        <vehicle id="veh7" x="2607.93" y="5856.71" angle="-60.00" type="CarB" speed="21.47" pos="244.59" lane="m_2" slope="0.00"/>
        <vehicle id="veh8" x="2539.09" y="5824.58" angle="-60.00" type="CarB" speed="20.26" pos="320.26" lane="m_0" slope="0.00"/>
        <vehicle id="veh9" x="2570.18" y="5834.91" angle="-60.00" type="CarB" speed="23.38" pos="288.18" lane="m_2" slope="0.00"/>
    </timestep>
    <timestep time="20.00">
        <vehicle id="veh0" x="2216.50" y="615.47" angle="120.00" type="CarA" speed="23.07" pos="243.76" lane="a_1" slope="0.00"/>
        <vehicle id="veh1" x="2191.30" y="604.73" angle="120.00" type="CarA" speed="22.07" pos="216.56" lane="a_2" slope="0.00"/>
        <vehicle id="veh2" x="2159.90" y="582.79" angle="120.00" type="CarA" speed="21.39" pos="178.40" lane="a_1" slope="0.00"/>
        <vehicle id="veh3" x="2246.05" y="628.72" angle="120.00" type="CarA" speed="22.24" pos="275.98" lane="a_0" slope="0.00"/>
        <vehicle id="veh4" x="2103.95" y="550.49" angle="120.00" type="CarA" speed="17.42" pos="113.79" lane="a_1" slope="0.00"/>
        <vehicle id="veh5" x="2472.13" y="5785.92" angle="-60.00" type="CarB" speed="20.41" pos="397.58" lane="m_0" slope="0.00"/>
        <vehicle id="veh6" x="2528.13" y="5814.44" angle="-60.00" type="CarB" speed="22.85" pos="334.83" lane="m_1" slope="0.00"/>
        <vehicle id="veh7" x="2589.78" y="5846.22" angle="-60.00" type="CarB" speed="20.97" pos="265.55" lane="m_2" slope="0.00"/>
        <vehicle id="veh8" x="2521.98" y="5814.70" angle="-60.00" type="CarB" speed="19.76" pos="340.02" lane="m_0" slope="0.00"/>
        <vehicle id="veh9" x="2550.37" y="5823.47" angle="-60.00" type="CarB" speed="22.88" pos="311.06" lane="m_2" slope="0.00"/>
    </timestep>
    <timestep time="21.00">
        <vehicle id="veh0" x="2237.77" y="627.75" angle="120.00" type="CarA" speed="24.57" pos="268.32" lane="a_1" slope="0.00"/>
        <vehicle id="veh1" x="2209.98" y="615.51" angle="120.00" type="CarA" speed="21.57" pos="238.13" lane="a_2" slope="0.00"/>
        <vehicle id="veh2" x="2177.99" y="593.23" angle="120.00" type="CarA" speed="20.89" pos="199.29" lane="a_1" slope="0.00"/>
        <vehicle id="veh3" x="2264.88" y="639.59" angle="120.00" type="CarA" speed="21.74" pos="297.72" lane="a_0" slope="0.00"/>
        <vehicle id="veh4" x="2118.61" y="558.95" angle="120.00" type="CarA" speed="16.92" pos="130.72" lane="a_1" slope="0.00"/>
        <vehicle id="veh5" x="2454.90" y="5775.97" angle="-60.00" type="CarB" speed="19.91" pos="417.49" lane="m_0" slope="0.00"/>
        <vehicle id="veh6" x="2507.77" y="5802.69" angle="-60.00" type="CarB" speed="23.51" pos="358.34" lane="m_1" slope="0.00"/>
        <vehicle id="veh7" x="2572.05" y="5835.99" angle="-60.00" type="CarB" speed="20.47" pos="286.02" lane="m_2" slope="0.00"/>
        <vehicle id="veh8" x="2503.73" y="5804.16" angle="-60.00" type="CarB" speed="21.08" pos="361.10" lane="m_0" slope="0.00"/>