<?xml version="1.0" encoding="UTF-8"?>

<!-- generated on Fri May  8 09:08:59 2015 by SUMO Version 0.22.0
<?xml version="1.0" encoding="UTF-8"?>

<configuration xmlns:xsi="http://www.w3.org/2001/XMLSchema-instance" xsi:noNamespaceSchemaLocation="http://sumo.dlr.de/xsd/sumoConfiguration.xsd">

    <input>
        <net-file value="output/scenario1.net.xml"/>
        <route-files value="scenario1.rou.xml"/>
    </input>

    <output>
        <fcd-output value="output/fcd.xml"/>
    </output>

</configuration>
-->

<fcd-export xmlns:xsi="http://www.w3.org/2001/XMLSchema-instance" xsi:noNamespaceSchemaLocation="http://sumo.dlr.de/xsd/fcd_file.xsd">
    <timestep time="0.00">
        <vehicle id="veh0" x="2003.89" y="511.55" angle="-90.00" type="CarA" speed="0.00" pos="5.10" lane="a0_0" slope="0.00"/>
        <vehicle id="veh1" x="2009.32" y="511.55" angle="-90.00" type="CarA" speed="0.00" pos="5.10" lane="a1_0" slope="0.00"/>
        <vehicle id="veh2" x="2014.49" y="511.55" angle="-90.00" type="CarA" speed="0.00" pos="5.10" lane="a2_0" slope="0.00"/>
        <vehicle id="veh3" x="1997.56" y="511.69" angle="-63.41" type="CarA" speed="0.00" pos="5.10" lane="a3_0" slope="0.00"/>
        <vehicle id="veh4" x="2006.65" y="514.39" angle="-71.53" type="CarA" speed="0.00" pos="5.10" lane="a4_0" slope="0.00"/>
        <vehicle id="veh5" x="2012.23" y="514.97" angle="-75.96" type="CarA" speed="0.00" pos="5.10" lane="a5_0" slope="0.00"/>
        <vehicle id="veh6" x="1997.70" y="514.04" angle="-44.96" type="CarA" speed="0.00" pos="5.10" lane="a6_0" slope="0.00"/>
        <vehicle id="veh7" x="2003.18" y="516.00" angle="-56.32" type="CarA" speed="0.00" pos="5.10" lane="a7_0" slope="0.00"/>
        <vehicle id="veh8" x="2009.27" y="517.55" angle="-63.42" type="CarA" speed="0.00" pos="5.10" lane="a8_0" slope="0.00"/>
        <vehicle id="veh9" x="1996.20" y="515.12" angle="-33.70" type="CarA" speed="0.00" pos="5.10" lane="a9_0" slope="0.00"/>
    </timestep>
    <timestep time="1.00">
        <vehicle id="veh0" x="2003.13" y="511.55" angle="-90.00" type="CarA" speed="0.64" pos="5.74" lane="a0_0" slope="0.00"/>
        <vehicle id="veh1" x="2007.45" y="511.55" angle="-90.00" type="CarA" speed="1.68" pos="6.78" lane="a1_0" slope="0.00"/>
        <vehicle id="veh2" x="2011.52" y="511.55" angle="-90.00" type="CarA" speed="2.76" pos="7.86" lane="a2_0" slope="0.00"/>
        <vehicle id="veh3" x="2002.75" y="510.60" angle="-63.43" type="CarA" speed="0.60" pos="5.70" lane="a3_1" slope="0.00"/>
        <vehicle id="veh4" x="2004.78" y="513.77" angle="-71.53" type="CarA" speed="2.02" pos="7.12" lane="a4_0" slope="0.00"/>
        <vehicle id="veh5" x="2004.65" y="501.39" angle="15.00" type="CarA" speed="17.63" pos="6.86" lane=":0_21_0" slope="0.00"/>
        <vehicle id="veh6" x="1996.77" y="513.11" angle="-44.96" type="CarA" speed="1.15" pos="6.25" lane="a6_0" slope="0.00"/>
        <vehicle id="veh7" x="2000.65" y="514.32" angle="-56.32" type="CarA" speed="2.38" pos="7.48" lane="a7_0" slope="0.00"/>
        <vehicle id="veh8" x="2006.97" y="516.40" angle="-63.42" type="CarA" speed="2.11" pos="7.21" lane="a8_0" slope="0.00"/>
        <vehicle id="veh9" x="1995.14" y="513.54" angle="-33.70" type="CarA" speed="1.28" pos="6.38" lane="a9_0" slope="0.00"/>
    </timestep>
    <timestep time="2.00">
        <vehicle id="veh0" x="2003.39" y="508.25" angle="-90.00" type="CarA" speed="0.46" pos="6.20" lane="a0_1" slope="0.00"/>
        <vehicle id="veh1" x="2006.25" y="508.25" angle="-90.00" type="CarA" speed="1.65" pos="8.43" lane="a1_1" slope="0.00"/>
        <vehicle id="veh2" x="2009.61" y="508.25" angle="-90.00" type="CarA" speed="2.26" pos="10.12" lane="a2_1" slope="0.00"/>
        <vehicle id="veh3" x="2003.23" y="507.16" angle="-63.48" type="CarA" speed="0.65" pos="6.35" lane="a3_2" slope="0.00"/>
        <vehicle id="veh4" x="2004.25" y="510.11" angle="-71.55" type="CarA" speed="1.53" pos="8.66" lane="a4_1" slope="0.00"/>
        <vehicle id="veh5" x="2016.63" y="496.26" angle="120.00" type="CarA" speed="17.13" pos="10.59" lane="a_0" slope="0.00"/>
        <vehicle id="veh6" x="1997.76" y="509.42" angle="-45.00" type="CarA" speed="1.00" pos="7.24" lane="a6_1" slope="0.00"/>
        <vehicle id="veh7" x="2004.06" y="512.62" angle="-56.29" type="CarA" speed="1.88" pos="9.36" lane="a7_1" slope="0.00"/>
        <vehicle id="veh8" x="2008.74" y="513.60" angle="-63.43" type="CarA" speed="2.30" pos="9.52" lane="a8_1" slope="0.00"/>
        <vehicle id="veh9" x="1998.52" y="512.66" angle="-33.72" type="CarA" speed="1.58" pos="7.96" lane="a9_1" slope="0.00"/>
    </timestep>
    <timestep time="3.00">
        <vehicle id="veh0" x="2002.93" y="508.25" angle="-90.00" type="CarA" speed="0.43" pos="6.63" lane="a0_1" slope="0.00"/>
        <vehicle id="veh1" x="2005.05" y="508.25" angle="-90.00" type="CarA" speed="1.15" pos="9.58" lane="a1_1" slope="0.00"/>
        <vehicle id="veh2" x="2007.61" y="508.25" angle="-90.00" type="CarA" speed="1.95" pos="12.07" lane="a2_1" slope="0.00"/>
        <vehicle id="veh3" x="2003.99" y="503.84" angle="-63.39" type="CarA" speed="0.15" pos="6.50" lane="a3_3" slope="0.00"/>
        <vehicle id="veh4" x="2003.28" y="509.79" angle="-71.55" type="CarA" speed="1.03" pos="9.69" lane="a4_1" slope="0.00"/>
        <vehicle id="veh5" x="2035.75" y="507.30" angle="120.00" type="CarA" speed="22.04" pos="32.63" lane="a_0" slope="0.00"/>
        <vehicle id="veh6" x="1997.32" y="508.98" angle="-45.00" type="CarA" speed="0.50" pos="7.74" lane="a6_1" slope="0.00"/>
        <vehicle id="veh7" x="2003.12" y="511.99" angle="-56.29" type="CarA" speed="1.38" pos="10.74" lane="a7_1" slope="0.00"/>
        <vehicle id="veh8" x="2007.31" y="512.88" angle="-63.43" type="CarA" speed="1.80" pos="11.32" lane="a8_1" slope="0.00"/>
        <vehicle id="veh9" x="1997.75" y="511.50" angle="-33.72" type="CarA" speed="1.34" pos="9.30" lane="a9_1" slope="0.00"/>
    </timestep>
    <timestep time="4.00">
        <vehicle id="veh0" x="2002.92" y="508.25" angle="-90.00" type="CarA" speed="0.01" pos="6.64" lane="a0_1" slope="0.00"/>
        <vehicle id="veh1" x="2004.29" y="508.25" angle="-90.00" type="CarA" speed="0.73" pos="10.31" lane="a1_1" slope="0.00"/>
        <vehicle id="veh2" x="2005.82" y="508.25" angle="-90.00" type="CarA" speed="1.74" pos="13.81" lane="a2_1" slope="0.00"/>
        <vehicle id="veh3" x="2003.99" y="503.84" angle="-63.39" type="CarA" speed="0.00" pos="6.50" lane="a3_3" slope="0.00"/>
        <vehicle id="veh4" x="2002.78" y="509.62" angle="-71.55" type="CarA" speed="0.53" pos="10.23" lane="a4_1" slope="0.00"/>
        <vehicle id="veh5" x="2056.07" y="519.03" angle="120.00" type="CarA" speed="23.43" pos="56.06" lane="a_0" slope="0.00"/>
        <vehicle id="veh6" x="1996.93" y="508.59" angle="-45.00" type="CarA" speed="0.44" pos="8.18" lane="a6_1" slope="0.00"/>
        <vehicle id="veh7" x="2002.52" y="511.59" angle="-56.29" type="CarA" speed="0.88" pos="11.61" lane="a7_1" slope="0.00"/>
        <vehicle id="veh8" x="2005.81" y="512.13" angle="-63.43" type="CarA" speed="1.88" pos="13.20" lane="a8_1" slope="0.00"/>
        <vehicle id="veh9" x="1997.05" y="510.45" angle="-33.72" type="CarA" speed="1.20" pos="10.50" lane="a9_1" slope="0.00"/>
    </timestep>
    <timestep time="5.00">
        <vehicle id="veh0" x="2002.92" y="508.25" angle="-90.00" type="CarA" speed="0.00" pos="6.64" lane="a0_1" slope="0.00"/>
        <vehicle id="veh1" x="2003.47" y="508.25" angle="-90.00" type="CarA" speed="0.79" pos="11.11" lane="a1_1" slope="0.00"/>
        <vehicle id="veh2" x="2004.50" y="508.25" angle="-90.00" type="CarA" speed="1.28" pos="15.09" lane="a2_1" slope="0.00"/>
        <vehicle id="veh3" x="2003.99" y="503.84" angle="-63.39" type="CarA" speed="0.00" pos="6.50" lane="a3_3" slope="0.00"/>
        <vehicle id="veh4" x="2015.34" y="499.33" angle="120.00" type="CarA" speed="22.90" pos="10.14" lane="a_1" slope="0.00"/>
        <vehicle id="veh5" x="2075.95" y="530.51" angle="120.00" type="CarA" speed="22.93" pos="79.00" lane="a_0" slope="0.00"/>
        <vehicle id="veh6" x="1996.92" y="508.58" angle="-45.00" type="CarA" speed="0.00" pos="8.19" lane="a6_1" slope="0.00"/>
        <vehicle id="veh7" x="2002.18" y="511.36" angle="-56.29" type="CarA" speed="0.51" pos="12.12" lane="a7_1" slope="0.00"/>
        <vehicle id="veh8" x="2004.72" y="511.58" angle="-63.43" type="CarA" speed="1.38" pos="14.58" lane="a8_1" slope="0.00"/>
        <vehicle id="veh9" x="1996.59" y="509.76" angle="-33.72" type="CarA" speed="0.79" pos="11.29" lane="a9_1" slope="0.00"/>
    </timestep>
    <timestep time="6.00">
        <vehicle id="veh0" x="2009.58" y="496.00" angle="87.76" type="CarA" speed="14.88" pos="3.48" lane="a_1" slope="0.00"/>
        <vehicle id="veh1" x="2003.17" y="508.25" angle="-90.00" type="CarA" speed="0.29" pos="11.40" lane="a1_1" slope="0.00"/>
        <vehicle id="veh2" x="2003.70" y="508.25" angle="-90.00" type="CarA" speed="0.78" pos="15.87" lane="a2_1" slope="0.00"/>
        <vehicle id="veh3" x="2003.99" y="503.84" angle="-63.39" type="CarA" speed="0.00" pos="6.50" lane="a3_3" slope="0.00"/>
        <vehicle id="veh4" x="2034.75" y="510.54" angle="120.00" type="CarA" speed="22.40" pos="32.54" lane="a_1" slope="0.00"/>
        <vehicle id="veh5" x="2095.41" y="541.74" angle="120.00" type="CarA" speed="22.43" pos="101.43" lane="a_0" slope="0.00"/>
        <vehicle id="veh6" x="1996.92" y="508.58" angle="-45.00" type="CarA" speed="0.00" pos="8.19" lane="a6_1" slope="0.00"/>
        <vehicle id="veh7" x="2002.10" y="511.31" angle="-56.29" type="CarA" speed="0.11" pos="12.23" lane="a7_1" slope="0.00"/>
        <vehicle id="veh8" x="2003.87" y="511.16" angle="-63.43" type="CarA" speed="1.06" pos="15.64" lane="a8_1" slope="0.00"/>
        <vehicle id="veh9" x="1996.40" y="509.47" angle="-33.72" type="CarA" speed="0.33" pos="11.63" lane="a9_1" slope="0.00"/>
    </timestep>
    <timestep time="7.00">
        <vehicle id="veh0" x="2022.77" y="503.62" angle="120.00" type="CarA" speed="15.23" pos="18.71" lane="a_1" slope="0.00"/>
        <vehicle id="veh1" x="2009.04" y="495.69" angle="69.13" type="CarA" speed="14.50" pos="2.86" lane="a_1" slope="0.00"/>
        <vehicle id="veh2" x="2003.14" y="508.25" angle="-90.00" type="CarA" speed="0.54" pos="16.42" lane="a2_1" slope="0.00"/>
        <vehicle id="veh3" x="2003.99" y="503.84" angle="-63.39" type="CarA" speed="0.00" pos="6.50" lane="a3_3" slope="0.00"/>
        <vehicle id="veh4" x="2054.42" y="521.89" angle="120.00" type="CarA" speed="22.71" pos="55.24" lane="a_1" slope="0.00"/>
        <vehicle id="veh5" x="2114.43" y="552.72" angle="120.00" type="CarA" speed="21.93" pos="123.36" lane="a_0" slope="0.00"/>
        <vehicle id="veh6" x="1996.92" y="508.58" angle="-45.00" type="CarA" speed="0.00" pos="8.19" lane="a6_1" slope="0.00"/>
        <vehicle id="veh7" x="2002.09" y="511.30" angle="-56.29" type="CarA" speed="0.02" pos="12.25" lane="a7_1" slope="0.00"/>
        <vehicle id="veh8" x="2002.99" y="510.72" angle="-63.43" type="CarA" speed="1.11" pos="16.75" lane="a8_1" slope="0.00"/>
        <vehicle id="veh9" x="1996.38" y="509.45" angle="-33.72" type="CarA" speed="0.03" pos="11.66" lane="a9_1" slope="0.00"/>
    </timestep>
    <timestep time="8.00">
        <vehicle id="veh0" x="2039.24" y="513.13" angle="120.00" type="CarA" speed="19.01" pos="37.72" lane="a_1" slope="0.00"/>
        <vehicle id="veh1" x="2021.54" y="502.91" angle="120.00" type="CarA" speed="14.43" pos="17.29" lane="a_1" slope="0.00"/>
        <vehicle id="veh2" x="2006.29" y="495.25" angle="15.01" type="CarA" speed="12.90" pos="12.58" lane=":0_33_1" slope="0.00"/>
        <vehicle id="veh3" x="2003.99" y="503.84" angle="-63.39" type="CarA" speed="0.00" pos="6.50" lane="a3_3" slope="0.00"/>
        <vehicle id="veh4" x="2073.67" y="533.00" angle="120.00" type="CarA" speed="22.21" pos="77.45" lane="a_1" slope="0.00"/>
        <vehicle id="veh5" x="2133.01" y="563.45" angle="120.00" type="CarA" speed="21.43" pos="144.80" lane="a_0" slope="0.00"/>
        <vehicle id="veh6" x="1995.20" y="511.53" angle="-44.96" type="CarA" speed="0.00" pos="8.19" lane="a6_0" slope="0.00"/>
        <vehicle id="veh7" x="1995.57" y="510.93" angle="-56.32" type="CarA" speed="0.02" pos="12.27" lane="a7_0" slope="0.00"/>
        <vehicle id="veh8" x="1995.88" y="510.85" angle="-63.42" type="CarA" speed="0.64" pos="17.39" lane="a8_0" slope="0.00"/>
        <vehicle id="veh9" x="1990.80" y="507.04" angle="-33.70" type="CarA" speed="0.00" pos="11.66" lane="a9_0" slope="0.00"/>
    </timestep>
    <timestep time="9.00">
        <vehicle id="veh0" x="2054.36" y="525.66" angle="120.00" type="CarA" speed="18.51" pos="56.23" lane="a_2" slope="0.00"/>
        <vehicle id="veh1" x="2033.60" y="509.87" angle="120.00" type="CarA" speed="13.93" pos="31.21" lane="a_1" slope="0.00"/>
        <vehicle id="veh2" x="2016.47" y="499.98" angle="120.00" type="CarA" speed="12.40" pos="11.44" lane="a_1" slope="0.00"/>
        <vehicle id="veh3" x="2003.99" y="503.84" angle="-63.39" type="CarA" speed="0.00" pos="6.50" lane="a3_3" slope="0.00"/>
        <vehicle id="veh4" x="2092.47" y="543.86" angle="120.00" type="CarA" speed="21.71" pos="99.16" lane="a_1" slope="0.00"/>
        <vehicle id="veh5" x="2151.16" y="573.93" angle="120.00" type="CarA" speed="20.93" pos="165.73" lane="a_0" slope="0.00"/>
        <vehicle id="veh6" x="1995.20" y="511.53" angle="-44.96" type="CarA" speed="0.00" pos="8.19" lane="a6_0" slope="0.00"/>
        <vehicle id="veh7" x="1995.57" y="510.93" angle="-56.32" type="CarA" speed="0.00" pos="12.27" lane="a7_0" slope="0.00"/>
        <vehicle id="veh8" x="1995.69" y="510.76" angle="-63.42" type="CarA" speed="0.17" pos="17.56" lane="a8_0" slope="0.00"/>
        <vehicle id="veh9" x="1986.00" y="482.24" angle="62.31" type="CarA" speed="21.15" pos="21.05" lane=":0_0_0" slope="0.00"/>
    </timestep>
    <timestep time="10.00">
        <vehicle id="veh0" x="2072.05" y="535.88" angle="120.00" type="CarA" speed="20.44" pos="76.67" lane="a_2" slope="0.00"/>
        <vehicle id="veh1" x="2047.07" y="517.65" angle="120.00" type="CarA" speed="15.55" pos="46.76" lane="a_1" slope="0.00"/>
        <vehicle id="veh2" x="2026.78" y="505.93" angle="120.00" type="CarA" speed="11.90" pos="23.34" lane="a_1" slope="0.00"/>
        <vehicle id="veh3" x="2003.99" y="503.84" angle="-63.39" type="CarA" speed="0.00" pos="6.50" lane="a3_3" slope="0.00"/>
        <vehicle id="veh4" x="2110.85" y="554.47" angle="120.00" type="CarA" speed="21.21" pos="120.37" lane="a_1" slope="0.00"/>
        <vehicle id="veh5" x="2168.88" y="584.16" angle="120.00" type="CarA" speed="20.43" pos="186.16" lane="a_0" slope="0.00"/>
        <vehicle id="veh6" x="1972.27" y="486.64" angle="-42.64" type="CarA" speed="20.37" pos="20.27" lane=":0_4_0" slope="0.00"/>
        <vehicle id="veh7" x="2002.08" y="511.30" angle="-56.29" type="CarA" speed="0.00" pos="12.27" lane="a7_1" slope="0.00"/>
        <vehicle id="veh8" x="2002.33" y="510.39" angle="-63.43" type="CarA" speed="0.02" pos="17.58" lane="a8_1" slope="0.00"/>
        <vehicle id="veh9" x="2012.09" y="493.64" angle="120.00" type="CarA" speed="20.65" pos="5.35" lane="a_0" slope="0.00"/>
    </timestep>
    <timestep time="11.00">
        <vehicle id="veh0" x="2089.30" y="545.84" angle="120.00" type="CarA" speed="19.94" pos="96.60" lane="a_2" slope="0.00"/>
        <vehicle id="veh1" x="2063.51" y="527.14" angle="120.00" type="CarA" speed="18.97" pos="65.73" lane="a_1" slope="0.00"/>
        <vehicle id="veh2" x="2037.53" y="512.14" angle="120.00" type="CarA" speed="12.41" pos="35.75" lane="a_1" slope="0.00"/>
        <vehicle id="veh3" x="2018.80" y="508.95" angle="120.00" type="CarA" speed="20.71" pos="16.20" lane="a_3" slope="0.00"/>
        <vehicle id="veh4" x="2128.79" y="564.83" angle="120.00" type="CarA" speed="20.71" pos="141.08" lane="a_1" slope="0.00"/>
        <vehicle id="veh5" x="2186.17" y="594.14" angle="120.00" type="CarA" speed="19.93" pos="206.09" lane="a_0" slope="0.00"/>
        <vehicle id="veh6" x="1983.11" y="478.31" angle="112.74" type="CarA" speed="19.87" pos="40.14" lane=":0_4_0" slope="0.00"/>
        <vehicle id="veh7" x="2002.08" y="511.30" angle="-56.29" type="CarA" speed="0.00" pos="12.27" lane="a7_1" slope="0.00"/>
        <vehicle id="veh8" x="2002.33" y="510.39" angle="-63.43" type="CarA" speed="0.00" pos="17.58" lane="a8_1" slope="0.00"/>
        <vehicle id="veh9" x="2031.75" y="504.99" angle="120.00" type="CarA" speed="22.68" pos="28.03" lane="a_0" slope="0.00"/>
    </timestep>
    <timestep time="12.00">
        <vehicle id="veh0" x="2106.13" y="555.55" angle="120.00" type="CarA" speed="19.44" pos="116.04" lane="a_2" slope="0.00"/>
        <vehicle id="veh1" x="2079.52" y="536.38" angle="120.00" type="CarA" speed="18.47" pos="84.21" lane="a_1" slope="0.00"/>
        <vehicle id="veh2" x="2052.93" y="521.03" angle="120.00" type="CarA" speed="17.77" pos="53.52" lane="a_1" slope="0.00"/>
        <vehicle id="veh3" x="2036.28" y="519.04" angle="120.00" type="CarA" speed="20.21" pos="36.41" lane="a_3" slope="0.00"/>
        <vehicle id="veh4" x="2149.10" y="576.56" angle="120.00" type="CarA" speed="23.45" pos="164.52" lane="a_1" slope="0.00"/>
        <vehicle id="veh5" x="2203.02" y="603.87" angle="120.00" type="CarA" speed="19.43" pos="225.53" lane="a_0" slope="0.00"/>
        <vehicle id="veh6" x="2010.32" y="492.62" angle="118.83" type="CarA" speed="19.79" pos="3.31" lane="a_0" slope="0.00"/>
        <vehicle id="veh7" x="2002.08" y="511.30" angle="-56.29" type="CarA" speed="0.00" pos="12.27" lane="a7_1" slope="0.00"/>
        <vehicle id="veh8" x="2004.93" y="500.35" angle="15.00" type="CarA" speed="8.28" pos="8.18" lane=":0_13_1" slope="0.00"/>
        <vehicle id="veh9" x="2050.98" y="516.09" angle="120.00" type="CarA" speed="22.18" pos="50.20" lane="a_0" slope="0.00"/>
    </timestep>
    <timestep time="13.00">
        <vehicle id="veh0" x="2122.52" y="565.02" angle="120.00" type="CarA" speed="18.94" pos="134.97" lane="a_2" slope="0.00"/>
        <vehicle id="veh1" x="2095.09" y="545.37" angle="120.00" type="CarA" speed="17.97" pos="102.18" lane="a_1" slope="0.00"/>
        <vehicle id="veh2" x="2067.89" y="529.67" angle="120.00" type="CarA" speed="17.27" pos="70.78" lane="a_1" slope="0.00"/>
        <vehicle id="veh3" x="2057.44" y="531.26" angle="120.00" type="CarA" speed="24.47" pos="60.88" lane="a_3" slope="0.00"/>
        <vehicle id="veh4" x="2168.98" y="588.04" angle="120.00" type="CarA" speed="22.95" pos="187.47" lane="a_1" slope="0.00"/>
        <vehicle id="veh5" x="2219.44" y="613.35" angle="120.00" type="CarA" speed="18.93" pos="244.46" lane="a_0" slope="0.00"/>
        <vehicle id="veh6" x="2027.05" y="502.27" angle="120.00" type="CarA" speed="19.29" pos="22.60" lane="a_0" slope="0.00"/>
        <vehicle id="veh7" x="2003.18" y="506.88" angle="14.99" type="CarA" speed="7.04" pos="6.94" lane=":0_8_1" slope="0.00"/>
        <vehicle id="veh8" x="2014.57" y="498.88" angle="120.00" type="CarA" speed="14.23" pos="9.24" lane="a_1" slope="0.00"/>
        <vehicle id="veh9" x="2069.78" y="526.95" angle="120.00" type="CarA" speed="21.68" pos="71.88" lane="a_0" slope="0.00"/>
    </timestep>
    <timestep time="14.00">
        <vehicle id="veh0" x="2141.16" y="575.78" angle="120.00" type="CarA" speed="21.53" pos="156.51" lane="a_2" slope="0.00"/>
        <vehicle id="veh1" x="2110.23" y="554.11" angle="120.00" type="CarA" speed="17.47" pos="119.66" lane="a_1" slope="0.00"/>
        <vehicle id="veh2" x="2082.41" y="538.05" angle="120.00" type="CarA" speed="16.77" pos="87.55" lane="a_1" slope="0.00"/>
        <vehicle id="veh3" x="2078.17" y="543.23" angle="120.00" type="CarA" speed="23.97" pos="84.85" lane="a_3" slope="0.00"/>
        <vehicle id="veh4" x="2188.43" y="599.26" angle="120.00" type="CarA" speed="22.45" pos="209.92" lane="a_1" slope="0.00"/>
        <vehicle id="veh5" x="2240.00" y="625.22" angle="120.00" type="CarA" speed="23.71" pos="268.17" lane="a_0" slope="0.00"/>
        <vehicle id="veh6" x="2043.34" y="511.68" angle="120.00" type="CarA" speed="18.79" pos="41.39" lane="a_0" slope="0.00"/>
        <vehicle id="veh7" x="2005.10" y="499.69" angle="14.99" type="CarA" speed="11.42" pos="18.36" lane=":0_8_1" slope="0.00"/>
        <vehicle id="veh8" x="2025.56" y="509.04" angle="120.00" type="CarA" speed="13.73" pos="22.97" lane="a_2" slope="0.00"/>
        <vehicle id="veh9" x="2088.14" y="537.55" angle="120.00" type="CarA" speed="21.18" pos="93.05" lane="a_0" slope="0.00"/>
    </timestep>
    <timestep time="15.00">
        <vehicle id="veh0" x="2159.37" y="586.29" angle="120.00" type="CarA" speed="21.03" pos="177.54" lane="a_2" slope="0.00"/>
        <vehicle id="veh1" x="2124.94" y="562.61" angle="120.00" type="CarA" speed="16.97" pos="136.63" lane="a_1" slope="0.00"/>
        <vehicle id="veh2" x="2096.51" y="546.19" angle="120.00" type="CarA" speed="16.27" pos="103.82" lane="a_1" slope="0.00"/>
        <vehicle id="veh3" x="2098.47" y="554.95" angle="120.00" type="CarA" speed="23.47" pos="108.32" lane="a_3" slope="0.00"/>
        <vehicle id="veh4" x="2207.45" y="610.24" angle="120.00" type="CarA" speed="21.95" pos="231.86" lane="a_1" slope="0.00"/>
        <vehicle id="veh5" x="2260.13" y="636.85" angle="120.00" type="CarA" speed="23.21" pos="291.39" lane="a_0" slope="0.00"/>
        <vehicle id="veh6" x="2059.21" y="520.84" angle="120.00" type="CarA" speed="18.29" pos="59.68" lane="a_0" slope="0.00"/>
        <vehicle id="veh7" x="2008.69" y="495.49" angle="81.66" type="CarA" speed="11.09" pos="2.45" lane="a_1" slope="0.00"/>
        <vehicle id="veh8" x="2046.06" y="520.88" angle="120.00" type="CarA" speed="23.68" pos="46.65" lane="a_2" slope="0.00"/>
        <vehicle id="veh9" x="2108.00" y="549.02" angle="120.00" type="CarA" speed="22.91" pos="115.96" lane="a_0" slope="0.00"/>
    </timestep>
    <timestep time="16.00">
        <vehicle id="veh0" x="2177.14" y="596.55" angle="120.00" type="CarA" speed="20.53" pos="198.07" lane="a_2" slope="0.00"/>
        <vehicle id="veh1" x="2139.21" y="570.85" angle="120.00" type="CarA" speed="16.47" pos="153.10" lane="a_1" slope="0.00"/>
        <vehicle id="veh2" x="2110.17" y="554.08" angle="120.00" type="CarA" speed="15.77" pos="119.58" lane="a_1" slope="0.00"/>
        <vehicle id="veh3" x="2118.33" y="566.41" angle="120.00" type="CarA" speed="22.97" pos="131.28" lane="a_3" slope="0.00"/>
        <vehicle id="veh4" x="2229.10" y="622.74" angle="120.00" type="CarA" speed="24.99" pos="256.85" lane="a_1" slope="0.00"/>
        <vehicle id="veh5" x="2279.83" y="648.22" angle="120.00" type="CarA" speed="22.71" pos="314.10" lane="a_0" slope="0.00"/>
        <vehicle id="veh6" x="2075.39" y="530.18" angle="120.00" type="CarA" speed="18.66" pos="78.34" lane="a_0" slope="0.00"/>
        <vehicle id="veh7" x="2023.75" y="507.99" angle="120.00" type="CarA" speed="18.42" pos="20.87" lane="a_2" slope="0.00"/>
        <vehicle id="veh8" x="2066.13" y="532.46" angle="120.00" type="CarA" speed="23.18" pos="69.83" lane="a_2" slope="0.00"/>
        <vehicle id="veh9" x="2127.43" y="560.23" angle="120.00" type="CarA" speed="22.41" pos="138.36" lane="a_0" slope="0.00"/>
    </timestep>
    <timestep time="17.00">
        <vehicle id="veh0" x="2194.48" y="606.57" angle="120.00" type="CarA" speed="20.03" pos="218.11" lane="a_2" slope="0.00"/>
        <vehicle id="veh1" x="2155.59" y="580.30" angle="120.00" type="CarA" speed="18.91" pos="172.01" lane="a_1" slope="0.00"/>
        <vehicle id="veh2" x="2123.40" y="561.71" angle="120.00" type="CarA" speed="15.27" pos="134.85" lane="a_1" slope="0.00"/>
        <vehicle id="veh3" x="2138.72" y="578.18" angle="120.00" type="CarA" speed="23.57" pos="154.85" lane="a_3" slope="0.00"/>
        <vehicle id="veh4" x="2250.32" y="634.99" angle="120.00" type="CarA" speed="24.49" pos="281.34" lane="a_1" slope="0.00"/>
        <vehicle id="veh5" x="2299.09" y="659.34" angle="120.00" type="CarA" speed="22.21" pos="336.32" lane="a_0" slope="0.00"/>
        <vehicle id="veh6" x="2091.14" y="539.28" angle="120.00" type="CarA" speed="18.16" pos="96.51" lane="a_0" slope="0.00"/>
        <vehicle id="veh7" x="2040.16" y="517.47" angle="120.00" type="CarA" speed="18.96" pos="39.83" lane="a_2" slope="0.00"/>
        <vehicle id="veh8" x="2085.76" y="543.79" angle="120.00" type="CarA" speed="22.68" pos="92.51" lane="a_2" slope="0.00"/>
        <vehicle id="veh9" x="2146.43" y="571.20" angle="120.00" type="CarA" speed="21.91" pos="160.27" lane="a_0" slope="0.00"/>
    </timestep>
    <timestep time="18.00">
        <vehicle id="veh0" x="2213.88" y="617.76" angle="120.00" type="CarA" speed="22.41" pos="240.51" lane="a_2" slope="0.00"/>
        <vehicle id="veh1" x="2171.54" y="589.51" angle="120.00" type="CarA" speed="18.41" pos="190.42" lane="a_1" slope="0.00"/>
        <vehicle id="veh2" x="2136.36" y="569.20" angle="120.00" type="CarA" speed="14.96" pos="149.81" lane="a_1" slope="0.00"/>
        <vehicle id="veh3" x="2158.67" y="589.70" angle="120.00" type="CarA" speed="23.07" pos="177.92" lane="a_3" slope="0.00"/>
        <vehicle id="veh4" x="2271.10" y="646.99" angle="120.00" type="CarA" speed="23.99" pos="305.33" lane="a_1" slope="0.00"/>
        <vehicle id="veh5" x="2317.92" y="670.21" angle="120.00" type="CarA" speed="21.71" pos="358.03" lane="a_0" slope="0.00"/>
        <vehicle id="veh6" x="2109.28" y="549.75" angle="120.00" type="CarA" speed="20.92" pos="117.43" lane="a_0" slope="0.00"/>
        <vehicle id="veh7" x="2056.14" y="526.70" angle="120.00" type="CarA" speed="18.46" pos="58.30" lane="a_2" slope="0.00"/>
        <vehicle id="veh8" x="2104.96" y="554.88" angle="120.00" type="CarA" speed="22.18" pos="114.69" lane="a_2" slope="0.00"/>
        <vehicle id="veh9" x="2164.99" y="581.92" angle="120.00" type="CarA" speed="21.41" pos="181.68" lane="a_0" slope="0.00"/>
    </timestep>
    <timestep time="19.00">
        <vehicle id="veh0" x="2234.12" y="629.45" angle="120.00" type="CarA" speed="23.38" pos="263.90" lane="a_2" slope="0.00"/>
        <vehicle id="veh1" x="2191.81" y="597.40" angle="120.00" type="CarA" speed="22.18" pos="212.59" lane="a_0" slope="0.00"/>
        <vehicle id="veh2" x="2150.83" y="577.55" angle="120.00" type="CarA" speed="16.70" pos="166.51" lane="a_1" slope="0.00"/>
        <vehicle id="veh3" x="2178.19" y="600.97" angle="120.00" type="CarA" speed="22.57" pos="200.50" lane="a_3" slope="0.00"/>
        <vehicle id="veh4" x="2291.70" y="658.89" angle="120.00" type="CarA" speed="23.78" pos="329.11" lane="a_1" slope="0.00"/>
        <vehicle id="veh5" x="2337.48" y="681.51" angle="120.00" type="CarA" speed="22.56" pos="380.59" lane="a_0" slope="0.00"/>
        <vehicle id="veh6" x="2126.99" y="559.98" angle="120.00" type="CarA" speed="20.42" pos="137.85" lane="a_0" slope="0.00"/>
        <vehicle id="veh7" x="2073.81" y="540.71" angle="120.00" type="CarA" speed="21.50" pos="79.80" lane="a_3" slope="0.00"/>
        <vehicle id="veh8" x="2123.73" y="565.71" angle="120.00" type="CarA" speed="21.68" pos="136.37" lane="a_2" slope="0.00"/>
        <vehicle id="veh9" x="2183.12" y="592.39" angle="120.00" type="CarA" speed="20.91" pos="202.58" lane="a_0" slope="0.00"/>
    </timestep>
    <timestep time="20.00">
        <vehicle id="veh0" x="2253.92" y="640.89" angle="120.00" type="CarA" speed="22.88" pos="286.78" lane="a_2" slope="0.00"/>
        <vehicle id="veh1" x="2210.60" y="608.25" angle="120.00" type="CarA" speed="21.68" pos="234.27" lane="a_0" slope="0.00"/>
        <vehicle id="veh2" x="2164.87" y="585.66" angle="120.00" type="CarA" speed="16.20" pos="182.72" lane="a_1" slope="0.00"/>
        <vehicle id="veh3" x="2197.28" y="611.99" angle="120.00" type="CarA" speed="22.07" pos="222.57" lane="a_3" slope="0.00"/>
        <vehicle id="veh4" x="2311.87" y="670.53" angle="120.00" type="CarA" speed="23.28" pos="352.39" lane="a_1" slope="0.00"/>
        <vehicle id="veh5" x="2356.77" y="692.64" angle="120.00" type="CarA" speed="22.24" pos="402.83" lane="a_0" slope="0.00"/>
        <vehicle id="veh6" x="2144.26" y="569.95" angle="120.00" type="CarA" speed="19.92" pos="157.77" lane="a_0" slope="0.00"/>
        <vehicle id="veh7" x="2091.97" y="551.19" angle="120.00" type="CarA" speed="21.00" pos="100.80" lane="a_3" slope="0.00"/>
        <vehicle id="veh8" x="2143.31" y="577.02" angle="120.00" type="CarA" speed="22.62" pos="158.99" lane="a_2" slope="0.00"/>
        <vehicle id="veh9" x="2199.76" y="605.80" angle="120.00" type="CarA" speed="20.41" pos="222.99" lane="a_1" slope="0.00"/>
    </timestep>
    <timestep time="21.00">
        <vehicle id="veh0" x="2273.30" y="652.07" angle="120.00" type="CarA" speed="22.38" pos="309.16" lane="a_2" slope="0.00"/>
        <vehicle id="veh1" x="2228.96" y="618.85" angle="120.00" type="CarA" speed="21.18" pos="255.44" lane="a_0" slope="0.00"/>
        <vehicle id="veh2" x="2178.47" y="593.51" angle="120.00" type="CarA" speed="15.70" pos="198.42" lane="a_1" slope="0.00"/>
        <vehicle id="veh3" x="2215.94" y="622.76" angle="120.00" type="CarA" speed="21.57" pos="244.14" lane="a_3" slope="0.00"/>
        <vehicle id="veh4" x="2331.61" y="681.93" angle="120.00" type="CarA" speed="22.78" pos="375.17" lane="a_1" slope="0.00"/>
        <vehicle id="veh5" x="2377.16" y="704.41" angle="120.00" type="CarA" speed="23.51" pos="426.34" lane="a_0" slope="0.00"/>
        <vehicle id="veh6" x="2163.94" y="581.31" angle="120.00" type="CarA" speed="22.69" pos="180.46" lane="a_0" slope="0.00"/>
        <vehicle id="veh7" x="2111.93" y="562.71" angle="120.00" type="CarA" speed="23.07" pos="123.87" lane="a_3" slope="0.00"/>
        <vehicle id="veh8" x="2163.10" y="588.45" angle="120.00" type="CarA" speed="22.86" pos="181.85" lane="a_2" slope="0.00"/>