<?xml version="1.0" encoding="UTF-8"?>

<!-- generated on Fri May  8 08:57:29 2015 by SUMO Version 0.22.0
<?xml version="1.0" encoding="UTF-8"?>

<configuration xmlns:xsi="http://www.w3.org/2001/XMLSchema-instance" xsi:noNamespaceSchemaLocation="http://sumo.dlr.de/xsd/sumoConfiguration.xsd">

    <input>
        <net-file value="output/scenario3.net.xml"/>
        <route-files value="scenario3.rou.xml"/>
    </input>

    <output>
        <fcd-output value="output/fcd.xml"/>
    </output>

</configuration>
-->

<fcd-export xmlns:xsi="http://www.w3.org/2001/XMLSchema-instance" xsi:noNamespaceSchemaLocation="http://sumo.dlr.de/xsd/fcd_file.xsd">
    <timestep time="0.00">
        <vehicle id="veh0" x="2000.16" y="488.45" angle="90.00" type="CarA" speed="0.00" pos="1.72" lane="a0_0" slope="0.00"/>
        <vehicle id="veh1" x="1998.59" y="488.45" angle="90.00" type="CarA" speed="0.00" pos="5.10" lane="a1_0" slope="0.00"/>
        <vehicle id="veh2" x="1992.01" y="488.45" angle="90.00" type="CarA" speed="0.00" pos="5.10" lane="a2_0" slope="0.00"/>
        <vehicle id="veh3" x="1993.24" y="490.43" angle="45.04" type="CarA" speed="0.00" pos="3.21" lane="a3_0" slope="0.00"/>
        <vehicle id="veh4" x="1990.34" y="491.92" angle="63.43" type="CarA" speed="0.00" pos="5.10" lane="a4_0" slope="0.00"/>
        <vehicle id="veh5" x="2002.40" y="4511.55" angle="-90.00" type="CarB" speed="0.00" pos="0.18" lane="a5_0" slope="0.00"/>
        <vehicle id="veh6" x="2005.59" y="4511.55" angle="-90.00" type="CarB" speed="0.00" pos="2.60" lane="a6_0" slope="0.00"/>
        <vehicle id="veh7" x="2008.69" y="4511.55" angle="-90.00" type="CarB" speed="0.00" pos="5.10" lane="a7_0" slope="0.00"/>
        <vehicle id="veh8" x="1994.26" y="4510.60" angle="-45.00" type="CarB" speed="0.00" pos="0.20" lane="a8_0" slope="0.00"/>
        <vehicle id="veh9" x="1997.94" y="4511.88" angle="-63.40" type="CarB" speed="0.00" pos="2.93" lane="a9_0" slope="0.00"/>
    </timestep>
    <timestep time="1.00">
        <vehicle id="veh0" x="2002.45" y="488.45" angle="90.00" type="CarA" speed="5.21" pos="5.21" lane=":0_8_0" slope="0.00"/>
        <vehicle id="veh1" x="1993.39" y="491.75" angle="90.00" type="CarA" speed="0.52" pos="5.62" lane="a1_1" slope="0.00"/>
        <vehicle id="veh2" x="1990.50" y="491.75" angle="90.00" type="CarA" speed="1.92" pos="7.02" lane="a2_1" slope="0.00"/>
        <vehicle id="veh3" x="1987.02" y="501.31" angle="45.00" type="CarA" speed="0.00" pos="3.21" lane="a3_1" slope="0.00"/>
        <vehicle id="veh4" x="1992.88" y="494.34" angle="63.43" type="CarA" speed="1.37" pos="6.47" lane="a4_1" slope="0.00"/>
        <vehicle id="veh5" x="2002.40" y="4508.25" angle="-90.00" type="CarB" speed="0.00" pos="0.18" lane="a5_1" slope="0.00"/>
        <vehicle id="veh6" x="2006.80" y="4508.25" angle="-90.00" type="CarB" speed="0.00" pos="2.60" lane="a6_1" slope="0.00"/>
        <vehicle id="veh7" x="2008.09" y="4508.25" angle="-90.00" type="CarB" speed="1.30" pos="6.40" lane="a7_1" slope="0.00"/>
        <vehicle id="veh8" x="1991.39" y="4511.55" angle="-107.33" type="CarB" speed="5.34" pos="1.66" lane="q_0" slope="0.00"/>
        <vehicle id="veh9" x="2005.44" y="4511.94" angle="-63.17" type="CarB" speed="0.00" pos="2.93" lane="a9_1" slope="0.00"/>
    </timestep>
    <timestep time="2.00">
        <vehicle id="veh0" x="2008.55" y="488.45" angle="90.00" type="CarA" speed="6.96" pos="5.43" lane="a_0" slope="0.00"/>
        <vehicle id="veh1" x="1994.65" y="495.05" angle="90.00" type="CarA" speed="0.41" pos="6.03" lane="a1_2" slope="0.00"/>
        <vehicle id="veh2" x="1992.38" y="495.05" angle="90.00" type="CarA" speed="1.42" pos="8.43" lane="a2_2" slope="0.00"/>
        <vehicle id="veh3" x="1994.07" y="498.93" angle="45.00" type="CarA" speed="0.00" pos="3.21" lane="a3_2" slope="0.00"/>
        <vehicle id="veh4" x="1994.76" y="497.08" angle="63.40" type="CarA" speed="0.87" pos="7.34" lane="a4_2" slope="0.00"/>
        <vehicle id="veh5" x="2002.40" y="4508.25" angle="-90.00" type="CarB" speed="0.00" pos="0.18" lane="a5_1" slope="0.00"/>
        <vehicle id="veh6" x="2006.80" y="4508.25" angle="-90.00" type="CarB" speed="0.00" pos="2.60" lane="a6_1" slope="0.00"/>
        <vehicle id="veh7" x="2007.23" y="4508.25" angle="-90.00" type="CarB" speed="0.80" pos="7.21" lane="a7_1" slope="0.00"/>
        <vehicle id="veh8" x="1985.92" y="4511.55" angle="-90.00" type="CarB" speed="5.46" pos="7.13" lane="q_0" slope="0.00"/>
        <vehicle id="veh9" x="2000.35" y="4509.40" angle="-63.48" type="CarB" speed="4.67" pos="4.67" lane=":5_4_1" slope="0.00"/>
    </timestep>
    <timestep time="3.00">
        <vehicle id="veh0" x="2015.02" y="488.45" angle="90.00" type="CarA" speed="6.46" pos="11.90" lane="a_0" slope="0.00"/>
        <vehicle id="veh1" x="1995.66" y="498.35" angle="90.00" type="CarA" speed="0.00" pos="6.03" lane="a1_3" slope="0.00"/>
        <vehicle id="veh2" x="1994.27" y="498.35" angle="90.00" type="CarA" speed="1.16" pos="9.59" lane="a2_3" slope="0.00"/>
        <vehicle id="veh3" x="1996.22" y="501.45" angle="45.12" type="CarA" speed="0.00" pos="3.21" lane="a3_3" slope="0.00"/>
        <vehicle id="veh4" x="1993.40" y="501.45" angle="63.49" type="CarA" speed="0.45" pos="7.79" lane="a4_3" slope="0.00"/>
        <vehicle id="veh5" x="2002.40" y="4508.25" angle="-90.00" type="CarB" speed="0.00" pos="0.18" lane="a5_1" slope="0.00"/>
        <vehicle id="veh6" x="2006.80" y="4508.25" angle="-90.00" type="CarB" speed="0.00" pos="2.60" lane="a6_1" slope="0.00"/>
        <vehicle id="veh7" x="2006.90" y="4508.25" angle="-90.00" type="CarB" speed="0.30" pos="7.51" lane="a7_1" slope="0.00"/>
        <vehicle id="veh8" x="1978.61" y="4511.55" angle="-90.00" type="CarB" speed="7.32" pos="14.44" lane="q_0" slope="0.00"/>
        <vehicle id="veh9" x="1994.56" y="4508.32" angle="-79.04" type="CarB" speed="4.88" pos="9.55" lane=":5_4_1" slope="0.00"/>
    </timestep>
    <timestep time="4.00">
        <vehicle id="veh0" x="2020.98" y="488.45" angle="90.00" type="CarA" speed="5.96" pos="17.86" lane="a_0" slope="0.00"/>
        <vehicle id="veh1" x="2001.77" y="492.94" angle="48.50" type="CarA" speed="8.17" pos="8.16" lane=":0_16_0" slope="0.00"/>
        <vehicle id="veh2" x="1995.02" y="498.35" angle="90.00" type="CarA" speed="0.78" pos="10.37" lane="a2_3" slope="0.00"/>
        <vehicle id="veh3" x="1996.22" y="501.45" angle="45.12" type="CarA" speed="0.00" pos="3.21" lane="a3_3" slope="0.00"/>
        <vehicle id="veh4" x="1993.40" y="501.45" angle="63.49" type="CarA" speed="0.00" pos="7.79" lane="a4_3" slope="0.00"/>
        <vehicle id="veh5" x="1999.82" y="4508.25" angle="-90.00" type="CarB" speed="3.21" pos="3.21" lane=":5_8_1" slope="0.00"/>
        <vehicle id="veh6" x="2006.80" y="4508.25" angle="-90.00" type="CarB" speed="0.00" pos="2.60" lane="a6_1" slope="0.00"/>
        <vehicle id="veh7" x="2006.90" y="4508.25" angle="-90.00" type="CarB" speed="0.00" pos="7.51" lane="a7_1" slope="0.00"/>
        <vehicle id="veh8" x="1970.83" y="4511.55" angle="-90.00" type="CarB" speed="7.78" pos="22.22" lane="q_0" slope="0.00"/>
        <vehicle id="veh9" x="1986.12" y="4508.25" angle="-90.00" type="CarB" speed="8.18" pos="6.93" lane="q_1" slope="0.00"/>
    </timestep>
    <timestep time="5.00">
        <vehicle id="veh0" x="2026.91" y="488.45" angle="90.00" type="CarA" speed="5.93" pos="23.79" lane="a_0" slope="0.00"/>
        <vehicle id="veh1" x="2008.99" y="491.75" angle="90.00" type="CarA" speed="7.67" pos="5.87" lane="a_1" slope="0.00"/>
        <vehicle id="veh2" x="1995.47" y="498.35" angle="90.00" type="CarA" speed="0.46" pos="10.83" lane="a2_3" slope="0.00"/>
        <vehicle id="veh3" x="1996.22" y="501.45" angle="45.12" type="CarA" speed="0.00" pos="3.21" lane="a3_3" slope="0.00"/>
        <vehicle id="veh4" x="1993.40" y="501.45" angle="63.49" type="CarA" speed="0.00" pos="7.79" lane="a4_3" slope="0.00"/>
        <vehicle id="veh5" x="1994.53" y="4508.25" angle="-90.00" type="CarB" speed="6.57" pos="9.78" lane=":5_8_1" slope="0.00"/>
        <vehicle id="veh6" x="2004.47" y="4508.25" angle="-90.00" type="CarB" speed="2.53" pos="2.53" lane=":5_14_0" slope="0.00"/>
        <vehicle id="veh7" x="2006.90" y="4508.25" angle="-90.00" type="CarB" speed="0.00" pos="7.51" lane="a7_1" slope="0.00"/>
        <vehicle id="veh8" x="1962.90" y="4511.55" angle="-90.00" type="CarB" speed="7.93" pos="30.15" lane="q_0" slope="0.00"/>
        <vehicle id="veh9" x="1978.44" y="4508.25" angle="-90.00" type="CarB" speed="7.68" pos="14.61" lane="q_1" slope="0.00"/>
    </timestep>
    <timestep time="6.00">
        <vehicle id="veh0" x="2032.80" y="488.45" angle="90.00" type="CarA" speed="5.89" pos="29.68" lane="a_0" slope="0.00"/>
        <vehicle id="veh1" x="2016.16" y="491.75" angle="90.00" type="CarA" speed="7.17" pos="13.04" lane="a_1" slope="0.00"/>
        <vehicle id="veh2" x="1999.42" y="496.69" angle="70.18" type="CarA" speed="4.32" pos="4.12" lane=":0_20_0" slope="0.00"/>
        <vehicle id="veh3" x="1996.22" y="501.45" angle="45.12" type="CarA" speed="0.00" pos="3.21" lane="a3_3" slope="0.00"/>
        <vehicle id="veh4" x="1993.40" y="501.45" angle="63.49" type="CarA" speed="0.00" pos="7.79" lane="a4_3" slope="0.00"/>
        <vehicle id="veh5" x="1988.82" y="4508.25" angle="-90.00" type="CarB" speed="6.07" pos="4.23" lane="q_1" slope="0.00"/>
        <vehicle id="veh6" x="2000.30" y="4508.25" angle="-90.00" type="CarB" speed="4.54" pos="7.07" lane=":5_14_0" slope="0.00"/>
        <vehicle id="veh7" x="2008.09" y="4504.95" angle="-90.00" type="CarB" speed="0.00" pos="7.51" lane="a7_2" slope="0.00"/>
        <vehicle id="veh8" x="1955.47" y="4511.55" angle="-90.00" type="CarB" speed="7.43" pos="37.58" lane="q_0" slope="0.00"/>
        <vehicle id="veh9" x="1971.27" y="4508.25" angle="-90.00" type="CarB" speed="7.18" pos="21.78" lane="q_1" slope="0.00"/>
    </timestep>
    <timestep time="7.00">
        <vehicle id="veh0" x="2040.82" y="488.45" angle="90.00" type="CarA" speed="8.02" pos="37.70" lane="a_0" slope="0.00"/>
        <vehicle id="veh1" x="2022.82" y="495.05" angle="90.00" type="CarA" speed="6.67" pos="19.70" lane="a_2" slope="0.00"/>
        <vehicle id="veh2" x="2003.26" y="495.05" angle="66.78" type="CarA" speed="4.18" pos="0.14" lane="a_2" slope="0.00"/>
        <vehicle id="veh3" x="1996.22" y="501.45" angle="45.12" type="CarA" speed="0.00" pos="3.21" lane="a3_3" slope="0.00"/>
        <vehicle id="veh4" x="1995.18" y="500.16" angle="58.10" type="CarA" speed="2.20" pos="2.19" lane=":0_24_0" slope="0.00"/>
        <vehicle id="veh5" x="1982.36" y="4508.25" angle="-90.00" type="CarB" speed="6.46" pos="10.69" lane="q_1" slope="0.00"/>
        <vehicle id="veh6" x="1995.11" y="4508.25" angle="-90.00" type="CarB" speed="5.65" pos="12.72" lane=":5_14_0" slope="0.00"/>
        <vehicle id="veh7" x="2000.56" y="4504.95" angle="-90.00" type="CarB" speed="7.54" pos="7.45" lane=":5_18_1" slope="0.00"/>
        <vehicle id="veh8" x="1947.91" y="4511.55" angle="-90.00" type="CarB" speed="7.56" pos="45.14" lane="q_0" slope="0.00"/>
        <vehicle id="veh9" x="1963.08" y="4508.25" angle="-90.00" type="CarB" speed="8.18" pos="29.97" lane="q_1" slope="0.00"/>
    </timestep>
    <timestep time="8.00">
        <vehicle id="veh0" x="2048.79" y="488.45" angle="90.00" type="CarA" speed="7.97" pos="45.67" lane="a_0" slope="0.00"/>
        <vehicle id="veh1" x="2029.82" y="495.05" angle="90.00" type="CarA" speed="7.00" pos="26.70" lane="a_2" slope="0.00"/>
        <vehicle id="veh2" x="2009.22" y="495.05" angle="90.00" type="CarA" speed="5.96" pos="6.10" lane="a_2" slope="0.00"/>
        <vehicle id="veh3" x="2003.66" y="498.35" angle="68.35" type="CarA" speed="8.11" pos="0.54" lane="a_3" slope="0.00"/>
        <vehicle id="veh4" x="1997.64" y="497.74" angle="48.04" type="CarA" speed="3.47" pos="5.66" lane=":0_24_0" slope="0.00"/>
        <vehicle id="veh5" x="1974.81" y="4508.25" angle="-90.00" type="CarB" speed="7.55" pos="18.24" lane="q_1" slope="0.00"/>
        <vehicle id="veh6" x="1990.14" y="4508.25" angle="-90.00" type="CarB" speed="5.15" pos="2.91" lane="q_1" slope="0.00"/>
        <vehicle id="veh7" x="1992.62" y="4504.95" angle="-90.00" type="CarB" speed="7.94" pos="0.43" lane="q_2" slope="0.00"/>
        <vehicle id="veh8" x="1940.85" y="4511.55" angle="-90.00" type="CarB" speed="7.06" pos="52.20" lane="q_0" slope="0.00"/>
        <vehicle id="veh9" x="1955.40" y="4504.95" angle="-90.00" type="CarB" speed="7.68" pos="37.65" lane="q_2" slope="0.00"/>
    </timestep>
    <timestep time="9.00">
        <vehicle id="veh0" x="2056.26" y="488.45" angle="90.00" type="CarA" speed="7.47" pos="53.14" lane="a_0" slope="0.00"/>
        <vehicle id="veh1" x="2036.36" y="495.05" angle="90.00" type="CarA" speed="6.54" pos="33.24" lane="a_2" slope="0.00"/>
        <vehicle id="veh2" x="2014.68" y="495.05" angle="90.00" type="CarA" speed="5.46" pos="11.56" lane="a_2" slope="0.00"/>
        <vehicle id="veh3" x="2011.26" y="498.35" angle="90.00" type="CarA" speed="7.61" pos="8.14" lane="a_3" slope="0.00"/>
        <vehicle id="veh4" x="2001.58" y="495.35" angle="57.93" type="CarA" speed="4.78" pos="10.45" lane=":0_24_0" slope="0.00"/>
        <vehicle id="veh5" x="1967.76" y="4508.25" angle="-90.00" type="CarB" speed="7.05" pos="25.29" lane="q_1" slope="0.00"/>
        <vehicle id="veh6" x="1984.42" y="4508.25" angle="-90.00" type="CarB" speed="5.72" pos="8.63" lane="q_1" slope="0.00"/>
        <vehicle id="veh7" x="1985.18" y="4504.95" angle="-90.00" type="CarB" speed="7.44" pos="7.87" lane="q_2" slope="0.00"/>
        <vehicle id="veh8" x="1934.29" y="4511.55" angle="-90.00" type="CarB" speed="6.56" pos="58.76" lane="q_0" slope="0.00"/>
        <vehicle id="veh9" x="1947.98" y="4504.95" angle="-90.00" type="CarB" speed="7.42" pos="45.07" lane="q_2" slope="0.00"/>
    </timestep>
    <timestep time="10.00">
        <vehicle id="veh0" x="2063.23" y="488.45" angle="90.00" type="CarA" speed="6.97" pos="60.11" lane="a_0" slope="0.00"/>
        <vehicle id="veh1" x="2043.41" y="495.05" angle="90.00" type="CarA" speed="7.04" pos="40.29" lane="a_2" slope="0.00"/>
        <vehicle id="veh2" x="2021.52" y="495.05" angle="90.00" type="CarA" speed="6.84" pos="18.40" lane="a_2" slope="0.00"/>
        <vehicle id="veh3" x="2018.37" y="498.35" angle="90.00" type="CarA" speed="7.11" pos="15.25" lane="a_3" slope="0.00"/>
        <vehicle id="veh4" x="2006.00" y="495.05" angle="85.34" type="CarA" speed="4.45" pos="2.88" lane="a_2" slope="0.00"/>
        <vehicle id="veh5" x="1961.21" y="4508.25" angle="-90.00" type="CarB" speed="6.55" pos="31.84" lane="q_1" slope="0.00"/>
        <vehicle id="veh6" x="1979.20" y="4508.25" angle="-90.00" type="CarB" speed="5.22" pos="13.85" lane="q_1" slope="0.00"/>
        <vehicle id="veh7" x="1976.98" y="4504.95" angle="-90.00" type="CarB" speed="8.20" pos="16.07" lane="q_2" slope="0.00"/>
        <vehicle id="veh8" x="1928.04" y="4511.55" angle="-90.00" type="CarB" speed="6.26" pos="65.01" lane="q_0" slope="0.00"/>
        <vehicle id="veh9" x="1941.06" y="4504.95" angle="-90.00" type="CarB" speed="6.92" pos="51.99" lane="q_2" slope="0.00"/>
    </timestep>
    <timestep time="11.00">
        <vehicle id="veh0" x="2069.69" y="488.45" angle="90.00" type="CarA" speed="6.47" pos="66.57" lane="a_0" slope="0.00"/>
        <vehicle id="veh1" x="2049.95" y="495.05" angle="90.00" type="CarA" speed="6.54" pos="46.83" lane="a_2" slope="0.00"/>
        <vehicle id="veh2" x="2027.86" y="495.05" angle="90.00" type="CarA" speed="6.34" pos="24.74" lane="a_2" slope="0.00"/>
        <vehicle id="veh3" x="2024.97" y="498.35" angle="90.00" type="CarA" speed="6.61" pos="21.85" lane="a_3" slope="0.00"/>
        <vehicle id="veh4" x="2012.02" y="495.05" angle="90.00" type="CarA" speed="6.02" pos="8.90" lane="a_2" slope="0.00"/>
        <vehicle id="veh5" x="1954.62" y="4508.25" angle="-90.00" type="CarB" speed="6.59" pos="38.43" lane="q_1" slope="0.00"/>
        <vehicle id="veh6" x="1973.42" y="4508.25" angle="-90.00" type="CarB" speed="5.78" pos="19.63" lane="q_1" slope="0.00"/>
        <vehicle id="veh7" x="1969.27" y="4504.95" angle="-90.00" type="CarB" speed="7.70" pos="23.78" lane="q_2" slope="0.00"/>
        <vehicle id="veh8" x="1920.16" y="4511.55" angle="-90.00" type="CarB" speed="7.88" pos="72.89" lane="q_0" slope="0.00"/>
        <vehicle id="veh9" x="1934.64" y="4504.95" angle="-90.00" type="CarB" speed="6.42" pos="58.41" lane="q_2" slope="0.00"/>
    </timestep>
    <timestep time="12.00">
        <vehicle id="veh0" x="2075.66" y="488.45" angle="90.00" type="CarA" speed="5.97" pos="72.54" lane="a_0" slope="0.00"/>
        <vehicle id="veh1" x="2057.08" y="495.05" angle="90.00" type="CarA" speed="7.13" pos="53.96" lane="a_2" slope="0.00"/>
        <vehicle id="veh2" x="2033.70" y="491.75" angle="90.00" type="CarA" speed="5.84" pos="30.58" lane="a_1" slope="0.00"/>
        <vehicle id="veh3" x="2031.34" y="498.35" angle="90.00" type="CarA" speed="6.36" pos="28.22" lane="a_3" slope="0.00"/>
        <vehicle id="veh4" x="2018.24" y="495.05" angle="90.00" type="CarA" speed="6.22" pos="15.12" lane="a_2" slope="0.00"/>
        <vehicle id="veh5" x="1948.52" y="4511.55" angle="-90.00" type="CarB" speed="6.09" pos="44.53" lane="q_0" slope="0.00"/>
        <vehicle id="veh6" x="1966.85" y="4508.25" angle="-90.00" type="CarB" speed="6.57" pos="26.20" lane="q_1" slope="0.00"/>
        <vehicle id="veh7" x="1962.07" y="4504.95" angle="-90.00" type="CarB" speed="7.20" pos="30.98" lane="q_2" slope="0.00"/>
        <vehicle id="veh8" x="1912.78" y="4511.55" angle="-90.00" type="CarB" speed="7.38" pos="80.27" lane="q_0" slope="0.00"/>
        <vehicle id="veh9" x="1928.72" y="4504.95" angle="-90.00" type="CarB" speed="5.92" pos="64.33" lane="q_2" slope="0.00"/>
    </timestep>
    <timestep time="13.00">
        <vehicle id="veh0" x="2081.13" y="488.45" angle="90.00" type="CarA" speed="5.47" pos="78.01" lane="a_0" slope="0.00"/>
        <vehicle id="veh1" x="2063.71" y="491.75" angle="90.00" type="CarA" speed="6.63" pos="60.59" lane="a_1" slope="0.00"/>
        <vehicle id="veh2" x="2040.01" y="495.05" angle="90.00" type="CarA" speed="6.31" pos="36.89" lane="a_2" slope="0.00"/>
        <vehicle id="veh3" x="2039.46" y="498.35" angle="90.00" type="CarA" speed="8.12" pos="36.34" lane="a_3" slope="0.00"/>
        <vehicle id="veh4" x="2023.96" y="495.05" angle="90.00" type="CarA" speed="5.72" pos="20.84" lane="a_2" slope="0.00"/>
        <vehicle id="veh5" x="1942.93" y="4511.55" angle="-90.00" type="CarB" speed="5.59" pos="50.12" lane="q_0" slope="0.00"/>
        <vehicle id="veh6" x="1959.19" y="4508.25" angle="-90.00" type="CarB" speed="7.66" pos="33.86" lane="q_1" slope="0.00"/>
        <vehicle id="veh7" x="1955.37" y="4504.95" angle="-90.00" type="CarB" speed="6.70" pos="37.68" lane="q_2" slope="0.00"/>
        <vehicle id="veh8" x="1905.90" y="4511.55" angle="-90.00" type="CarB" speed="6.88" pos="87.15" lane="q_0" slope="0.00"/>
        <vehicle id="veh9" x="1922.04" y="4504.95" angle="-90.00" type="CarB" speed="6.68" pos="71.01" lane="q_2" slope="0.00"/>
    </timestep>
    <timestep time="14.00">
        <vehicle id="veh0" x="2089.00" y="488.45" angle="90.00" type="CarA" speed="7.87" pos="85.88" lane="a_0" slope="0.00"/>
        <vehicle id="veh1" x="2070.23" y="495.05" angle="90.00" type="CarA" speed="6.51" pos="67.11" lane="a_2" slope="0.00"/>
        <vehicle id="veh2" x="2045.82" y="495.05" angle="90.00" type="CarA" speed="5.81" pos="42.70" lane="a_2" slope="0.00"/>
        <vehicle id="veh3" x="2047.08" y="498.35" angle="90.00" type="CarA" speed="7.62" pos="43.96" lane="a_3" slope="0.00"/>
        <vehicle id="veh4" x="2029.19" y="495.05" angle="90.00" type="CarA" speed="5.22" pos="26.07" lane="a_2" slope="0.00"/>
        <vehicle id="veh5" x="1937.29" y="4511.55" angle="-90.00" type="CarB" speed="5.64" pos="55.76" lane="q_0" slope="0.00"/>
        <vehicle id="veh6" x="1952.02" y="4508.25" angle="-90.00" type="CarB" speed="7.16" pos="41.03" lane="q_1" slope="0.00"/>
        <vehicle id="veh7" x="1948.84" y="4504.95" angle="-90.00" type="CarB" speed="6.54" pos="44.21" lane="q_2" slope="0.00"/>
        <vehicle id="veh8" x="1899.52" y="4511.55" angle="-90.00" type="CarB" speed="6.38" pos="93.53" lane="q_0" slope="0.00"/>
        <vehicle id="veh9" x="1914.89" y="4508.25" angle="-90.00" type="CarB" speed="7.15" pos="78.16" lane="q_1" slope="0.00"/>
    </timestep>
    <timestep time="15.00">
        <vehicle id="veh0" x="2096.38" y="488.45" angle="90.00" type="CarA" speed="7.37" pos="93.26" lane="a_0" slope="0.00"/>
        <vehicle id="veh1" x="2076.25" y="495.05" angle="90.00" type="CarA" speed="6.02" pos="73.13" lane="a_2" slope="0.00"/>
        <vehicle id="veh2" x="2053.13" y="495.05" angle="90.00" type="CarA" speed="7.32" pos="50.01" lane="a_2" slope="0.00"/>
        <vehicle id="veh3" x="2054.21" y="498.35" angle="90.00" type="CarA" speed="7.12" pos="51.09" lane="a_3" slope="0.00"/>
        <vehicle id="veh4" x="2033.91" y="495.05" angle="90.00" type="CarA" speed="4.72" pos="30.79" lane="a_2" slope="0.00"/>
        <vehicle id="veh5" x="1930.59" y="4511.55" angle="-90.00" type="CarB" speed="6.70" pos="62.46" lane="q_0" slope="0.00"/>
        <vehicle id="veh6" x="1945.36" y="4508.25" angle="-90.00" type="CarB" speed="6.66" pos="47.69" lane="q_1" slope="0.00"/>
        <vehicle id="veh7" x="1942.80" y="4504.95" angle="-90.00" type="CarB" speed="6.04" pos="50.25" lane="q_2" slope="0.00"/>
        <vehicle id="veh8" x="1891.92" y="4511.55" angle="-90.00" type="CarB" speed="7.60" pos="101.13" lane="q_0" slope="0.00"/>
        <vehicle id="veh9" x="1908.24" y="4508.25" angle="-90.00" type="CarB" speed="6.65" pos="84.81" lane="q_1" slope="0.00"/>
    </timestep>
    <timestep time="16.00">
        <vehicle id="veh0" x="2103.25" y="488.45" angle="90.00" type="CarA" speed="6.87" pos="100.13" lane="a_0" slope="0.00"/>
        <vehicle id="veh1" x="2083.14" y="495.05" angle="90.00" type="CarA" speed="6.89" pos="80.02" lane="a_2" slope="0.00"/>
        <vehicle id="veh2" x="2060.01" y="495.05" angle="90.00" type="CarA" speed="6.88" pos="56.89" lane="a_2" slope="0.00"/>
        <vehicle id="veh3" x="2060.83" y="498.35" angle="90.00" type="CarA" speed="6.62" pos="57.71" lane="a_3" slope="0.00"/>
        <vehicle id="veh4" x="2039.09" y="491.75" angle="90.00" type="CarA" speed="5.18" pos="35.97" lane="a_1" slope="0.00"/>
        <vehicle id="veh5" x="1923.99" y="4511.55" angle="-90.00" type="CarB" speed="6.59" pos="69.06" lane="q_0" slope="0.00"/>
        <vehicle id="veh6" x="1937.14" y="4504.95" angle="-90.00" type="CarB" speed="8.22" pos="55.91" lane="q_2" slope="0.00"/>
        <vehicle id="veh7" x="1936.45" y="4501.65" angle="-90.00" type="CarB" speed="6.35" pos="56.60" lane="q_3" slope="0.00"/>
        <vehicle id="veh8" x="1884.81" y="4511.55" angle="-90.00" type="CarB" speed="7.10" pos="108.24" lane="q_0" slope="0.00"/>
        <vehicle id="veh9" x="1902.10" y="4508.25" angle="-90.00" type="CarB" speed="6.15" pos="90.95" lane="q_1" slope="0.00"/>
    </timestep>
    <timestep time="17.00">
        <vehicle id="veh0" x="2109.62" y="488.45" angle="90.00" type="CarA" speed="6.37" pos="106.50" lane="a_0" slope="0.00"/>
        <vehicle id="veh1" x="2089.53" y="495.05" angle="90.00" type="CarA" speed="6.39" pos="86.41" lane="a_2" slope="0.00"/>
        <vehicle id="veh2" x="2066.39" y="495.05" angle="90.00" type="CarA" speed="6.38" pos="63.27" lane="a_2" slope="0.00"/>
        <vehicle id="veh3" x="2066.95" y="498.35" angle="90.00" type="CarA" speed="6.12" pos="63.83" lane="a_3" slope="0.00"/>
        <vehicle id="veh4" x="2043.86" y="491.75" angle="90.00" type="CarA" speed="4.77" pos="40.74" lane="a_1" slope="0.00"/>
        <vehicle id="veh5" x="1917.90" y="4511.55" angle="-90.00" type="CarB" speed="6.09" pos="75.15" lane="q_0" slope="0.00"/>
        <vehicle id="veh6" x="1929.42" y="4504.95" angle="-90.00" type="CarB" speed="7.72" pos="63.63" lane="q_2" slope="0.00"/>
        <vehicle id="veh7" x="1928.62" y="4501.65" angle="-90.00" type="CarB" speed="7.83" pos="64.43" lane="q_3" slope="0.00"/>
        <vehicle id="veh8" x="1878.21" y="4511.55" angle="-90.00" type="CarB" speed="6.60" pos="114.84" lane="q_0" slope="0.00"/>
        <vehicle id="veh9" x="1896.45" y="4508.25" angle="-90.00" type="CarB" speed="5.65" pos="96.60" lane="q_1" slope="0.00"/>
    </timestep>
    <timestep time="18.00">
        <vehicle id="veh0" x="2116.40" y="488.45" angle="90.00" type="CarA" speed="6.78" pos="113.28" lane="a_0" slope="0.00"/>
        <vehicle id="veh1" x="2096.49" y="495.05" angle="90.00" type="CarA" speed="6.96" pos="93.37" lane="a_2" slope="0.00"/>
        <vehicle id="veh2" x="2072.27" y="495.05" angle="90.00" type="CarA" speed="5.88" pos="69.15" lane="a_2" slope="0.00"/>
        <vehicle id="veh3" x="2074.62" y="498.35" angle="90.00" type="CarA" speed="7.66" pos="71.50" lane="a_3" slope="0.00"/>
        <vehicle id="veh4" x="2051.30" y="491.75" angle="90.00" type="CarA" speed="7.44" pos="48.18" lane="a_1" slope="0.00"/>
        <vehicle id="veh5" x="1910.26" y="4508.25" angle="-90.00" type="CarB" speed="7.65" pos="82.79" lane="q_1" slope="0.00"/>
        <vehicle id="veh6" x="1922.20" y="4504.95" angle="-90.00" type="CarB" speed="7.22" pos="70.85" lane="q_2" slope="0.00"/>
        <vehicle id="veh7" x="1921.30" y="4501.65" angle="-90.00" type="CarB" speed="7.33" pos="71.75" lane="q_3" slope="0.00"/>
        <vehicle id="veh8" x="1872.10" y="4511.55" angle="-90.00" type="CarB" speed="6.10" pos="120.95" lane="q_0" slope="0.00"/>
        <vehicle id="veh9" x="1889.99" y="4504.95" angle="-90.00" type="CarB" speed="6.45" pos="103.06" lane="q_2" slope="0.00"/>
    </timestep>
    <timestep time="19.00">
        <vehicle id="veh0" x="2122.68" y="488.45" angle="90.00" type="CarA" speed="6.28" pos="119.56" lane="a_0" slope="0.00"/>
        <vehicle id="veh1" x="2103.85" y="495.05" angle="90.00" type="CarA" speed="7.36" pos="100.73" lane="a_2" slope="0.00"/>
        <vehicle id="veh2" x="2079.12" y="495.05" angle="90.00" type="CarA" speed="6.85" pos="76.00" lane="a_2" slope="0.00"/>
        <vehicle id="veh3" x="2081.78" y="498.35" angle="90.00" type="CarA" speed="7.16" pos="78.66" lane="a_3" slope="0.00"/>
        <vehicle id="veh4" x="2059.06" y="491.75" angle="90.00" type="CarA" speed="7.76" pos="55.94" lane="a_1" slope="0.00"/>
        <vehicle id="veh5" x="1902.77" y="4508.25" angle="-90.00" type="CarB" speed="7.49" pos="90.28" lane="q_1" slope="0.00"/>
        <vehicle id="veh6" x="1914.76" y="4504.95" angle="-90.00" type="CarB" speed="7.44" pos="78.29" lane="q_2" slope="0.00"/>
        <vehicle id="veh7" x="1914.47" y="4501.65" angle="-90.00" type="CarB" speed="6.83" pos="78.58" lane="q_3" slope="0.00"/>
        <vehicle id="veh8" x="1865.14" y="4511.55" angle="-90.00" type="CarB" speed="6.97" pos="127.91" lane="q_0" slope="0.00"/>
        <vehicle id="veh9" x="1882.17" y="4504.95" angle="-90.00" type="CarB" speed="7.82" pos="110.88" lane="q_2" slope="0.00"/>
    </timestep>
    <timestep time="20.00">
        <vehicle id="veh0" x="2128.62" y="488.45" angle="90.00" type="CarA" speed="5.94" pos="125.50" lane="a_0" slope="0.00"/>
        <vehicle id="veh1" x="2110.72" y="491.75" angle="90.00" type="CarA" speed="6.86" pos="107.60" lane="a_1" slope="0.00"/>
        <vehicle id="veh2" x="2086.33" y="491.75" angle="90.00" type="CarA" speed="7.21" pos="83.21" lane="a_1" slope="0.00"/>
        <vehicle id="veh3" x="2088.44" y="498.35" angle="90.00" type="CarA" speed="6.66" pos="85.32" lane="a_3" slope="0.00"/>
        <vehicle id="veh4" x="2066.33" y="491.75" angle="90.00" type="CarA" speed="7.26" pos="63.21" lane="a_1" slope="0.00"/>
        <vehicle id="veh5" x="1895.78" y="4508.25" angle="-90.00" type="CarB" speed="6.99" pos="97.27" lane="q_1" slope="0.00"/>
        <vehicle id="veh6" x="1907.45" y="4504.95" angle="-90.00" type="CarB" speed="7.31" pos="85.60" lane="q_2" slope="0.00"/>
        <vehicle id="veh7" x="1907.21" y="4501.65" angle="-90.00" type="CarB" speed="7.26" pos="85.84" lane="q_3" slope="0.00"/>
        <vehicle id="veh8" x="1858.67" y="4511.55" angle="-90.00" type="CarB" speed="6.47" pos="134.38" lane="q_0" slope="0.00"/>
        <vehicle id="veh9" x="1874.66" y="4504.95" angle="-90.00" type="CarB" speed="7.51" pos="118.39" lane="q_2" slope="0.00"/>
    </timestep>
    <timestep time="21.00">
        <vehicle id="veh0" x="2135.03" y="488.45" angle="90.00" type="CarA" speed="6.41" pos="131.91" lane="a_0" slope="0.00"/>
        <vehicle id="veh1" x="2118.67" y="491.75" angle="90.00" type="CarA" speed="7.95" pos="115.55" lane="a_1" slope="0.00"/>
        <vehicle id="veh2" x="2093.05" y="491.75" angle="90.00" type="CarA" speed="6.71" pos="89.93" lane="a_1" slope="0.00"/>
        <vehicle id="veh3" x="2094.61" y="498.35" angle="90.00" type="CarA" speed="6.16" pos="91.49" lane="a_3" slope="0.00"/>
        <vehicle id="veh4" x="2073.88" y="491.75" angle="90.00" type="CarA" speed="7.55" pos="70.76" lane="a_1" slope="0.00"/>
        <vehicle id="veh5" x="1887.97" y="4508.25" angle="-90.00" type="CarB" speed="7.80" pos="105.08" lane="q_1" slope="0.00"/>
        <vehicle id="veh6" x="1900.64" y="4504.95" angle="-90.00" type="CarB" speed="6.81" pos="92.41" lane="q_2" slope="0.00"/>
        <vehicle id="veh7" x="1900.45" y="4501.65" angle="-90.00" type="CarB" speed="6.76" pos="92.60" lane="q_3" slope="0.00"/>
        <vehicle id="veh8" x="1850.40" y="4511.55" angle="-90.00" type="CarB" speed="8.27" pos="142.65" lane="q_0" slope="0.00"/>
        <vehicle id="veh9" x="1867.65" y="4504.95" angle="-90.00" type="CarB" speed="7.01" pos="125.40" lane="q_2" slope="0.00"/>
    </timestep>
    <timestep time="22.00">
        <vehicle id="veh0" x="2141.69" y="488.45" angle="90.00" type="CarA" speed="6.66" pos="138.57" lane="a_0" slope="0.00"/>